                  Welcome to Q-Chem
     A Quantum Leap Into The Future Of Chemistry


 Q-Chem 4.3, Q-Chem, Inc., Pleasanton, CA (2015)

 Y. Shao,  Z. Gan,  E. Epifanovsky,  A. T. B. Gilbert,  M. Wormit,  
 J. Kussmann,  A. W. Lange,  A. Behn,  J. Deng,  X. Feng,  D. Ghosh,  
 M. Goldey,  P. R. Horn,  L. D. Jacobson,  I. Kaliman,  R. Z. Khaliullin,  
 T. Kus,  A. Landau,  J. Liu,  E. I. Proynov,  Y. M. Rhee,  R. M. Richard,  
 M. A. Rohrdanz,  R. P. Steele,  E. J. Sundstrom,  H. L. Woodcock III,  
 P. M. Zimmerman,  D. Zuev,  B. Albrecht,  E. Alguire,  B. Austin,  
 S. A. Baeppler,  G. J. O. Beran,  Y. A. Bernard,  E. Berquist,  
 K. Brandhorst,  K. B. Bravaya,  S. T. Brown,  D. Casanova,  C.-M. Chang,  
 Y. Chen,  S. H. Chien,  K. D. Closser,  D. L. Crittenden,  M. Diedenhofen,  
 R. A. DiStasio Jr.,  H. Do,  A. D. Dutoi,  R. G. Edgar,  P.-T. Fang,  
 S. Fatehi,  Q. Feng,  L. Fusti-Molnar,  A. Ghysels,  
 A. Golubeva-Zadorozhnaya,  J. Gomes,  A. Gunina,  M. W. D. Hanson-Heine,  
 P. H. P. Harbach,  A. W. Hauser,  E. G. Hohenstein,  Z. C. Holden,  K. Hui,  
 T.-C. Jagau,  H. Ji,  B. Kaduk,  K. Khistyaev,  Jaehoon Kim,  Jihan Kim,  
 R. A. King,  P. Klunzinger,  D. Kosenkov,  T. Kowalczyk,  C. M. Krauter,  
 K. U. Lao,  A. Laurent,  K. V. Lawler,  S. Lehtola,  S. V. Levchenko,  
 C. Y. Lin,  Y.-S. Lin,  F. Liu,  E. Livshits,  R. C. Lochan,  A. Luenser,  
 P. Manohar,  S. F. Manzer,  S.-P. Mao,  N. Mardirossian,  A. V. Marenich,  
 L. A. Martinez-Martinez,  S. A. Maurer,  N. J. Mayhall,  K. Nanda,  
 C. M. Oana,  R. Olivares-Amaya,  D. P. O'Neill,  J. A. Parkhill,  
 T. M. Perrine,  R. Peverati,  P. A. Pieniazek,  F. Plasser,  A. Prociuk,  
 D. R. Rehn,  E. Rosta,  N. J. Russ,  N. Sergueev,  S. M. Sharada,  
 S. Sharma,  D. W. Small,  A. Sodt,  T. Stauch,  T. Stein,  D. Stuck,  
 Y.-C. Su,  A. J. W. Thom,  T. Tsuchimochi,  L. Vogt,  O. Vydrov,  T. Wang,  
 M. A. Watson,  J. Wenzel,  A. White,  C. F. Williams,  V. Vanovschi,  
 S. Yeganeh,  S. R. Yost,  Z.-Q. You,  I. Y. Zhang,  X. Zhang,  Y. Zhao,  
 B. R. Brooks,  G. K. L. Chan,  D. M. Chipman,  C. J. Cramer,  
 W. A. Goddard III,  M. S. Gordon,  W. J. Hehre,  A. Klamt,  
 H. F. Schaefer III,  M. W. Schmidt,  C. D. Sherrill,  D. G. Truhlar,  
 A. Warshel,  X. Xu,  A. Aspuru-Guzik,  R. Baer,  A. T. Bell,  N. A. Besley,  
 J.-D. Chai,  A. Dreuw,  B. D. Dunietz,  T. R. Furlani,  S. R. Gwaltney,  
 C.-P. Hsu,  Y. Jung,  J. Kong,  D. S. Lambrecht,  W. Liang,  C. Ochsenfeld,  
 V. A. Rassolov,  L. V. Slipchenko,  J. E. Subotnik,  T. Van Voorhis,  
 J. M. Herbert,  A. I. Krylov,  P. M. W. Gill,  M. Head-Gordon

 Contributors to earlier versions of Q-Chem not listed above: 
 R. D. Adamson,  J. Baker,  E. F. C. Byrd,  A. K. Chakraborty,  C.-L. Cheng,  
 H. Dachsel,  R. J. Doerksen,  G. Hawkins,  A. Heyden,  S. Hirata,  
 G. Kedziora,  F. J. Keil,  C. Kelley,  P. P. Korambath,  W. Kurlancheek,  
 A. M. Lee,  M. S. Lee,  D. Liotard,  I. Lotan,  P. E. Maslen,  N. Nair,  
 D. Neuhauser,  R. Olson,  B. Peters,  J. Ritchie,  N. E. Schultz,  
 N. Shenvi,  A. C. Simmonett,  K. S. Thanthiriwatte,  Q. Wu,  W. Zhang

 Please cite Q-Chem as follows:
 Y. Shao et al., Mol. Phys. 113, 184-215 (2015)
 DOI: 10.1080/00268976.2014.952696

 Q-Chem 4.3.0 for Intel X86 EM64T Linux

 Parts of Q-Chem use Armadillo 5.200.1 (Boston Tea Smuggler).
 http://arma.sourceforge.net/

 Q-Chem begins on Mon Mar 20 16:11:00 2017  


Host: 0

     Scratch files written to /home/nmayhall/scratch_qchem/03//
 Dec1416 |home|nmayhall|qcSoftware|qchem|qchem.svn-casman|libmdc|qstr_RNUM -1
 Using version located at /home/nmayhall/qcSoftware/qchem/qchem.svn-casman/bin/qchem


Total Memory Limit in MB = 2000
Mega-Array Size in MB = 62

Checking the input file for inconsistencies... 	...done.

 Q-Chem warning in module /home/nmayhall/qcSoftware/qchem/qchem.svn-casman/forms1/BasisType.C, line 1452:

 You are not using the predefined 5D/6D in this basis set.

Finally everything over in PARseQInput

--------------------------------------------------------------
User input:
--------------------------------------------------------------
$rem
	exchange 		hf
	unrestricted		1
	basis			6-31g*	
	aux_basis		rimp2-vdz
	scf_guess		core	
	scf_convergence		8
	purecart		1111

	symmetry		0
	sym_ignore		1

	!correlation		sf-cas
	!cas_n_spin_flip		1
	!cas_local		1
	gui			2
$end

$development
	1sf_heis_projection	1
$end

$molecule
0 13
H         -0.73854       -0.54065        0.08576
H         -2.31340       -1.01748       -0.67017
H         -2.09582        0.65549       -0.01146
H         -2.21044       -0.75437        1.11995
H	1.47674	3.37203	0.09828
H	0.1685	3.96022	1.20546
H	0.18287	2.2348	0.65668
H	-0.21686	3.55528	-0.51743
H          3.48850       -0.87553       -0.06084
H          2.29649        0.48578       -0.00191
H          1.93960       -1.06676        0.85992
H          1.91588       -1.00965       -0.95022
He	10	10	10	
He	-10	10	10	
$end


--------------------------------------------------------------
 ----------------------------------------------------------------
             Standard Nuclear Orientation (Angstroms)
    I     Atom           X                Y                Z
 ----------------------------------------------------------------
    1      H      -0.7385400000    -0.5406500000     0.0857600000
    2      H      -2.3134000000    -1.0174800000    -0.6701700000
    3      H      -2.0958200000     0.6554900000    -0.0114600000
    4      H      -2.2104400000    -0.7543700000     1.1199500000
    5      H       1.4767400000     3.3720300000     0.0982800000
    6      H       0.1685000000     3.9602200000     1.2054600000
    7      H       0.1828700000     2.2348000000     0.6566800000
    8      H      -0.2168600000     3.5552800000    -0.5174300000
    9      H       3.4885000000    -0.8755300000    -0.0608400000
   10      H       2.2964900000     0.4857800000    -0.0019100000
   11      H       1.9396000000    -1.0667600000     0.8599200000
   12      H       1.9158800000    -1.0096500000    -0.9502200000
   13      He     10.0000000000    10.0000000000    10.0000000000
   14      He    -10.0000000000    10.0000000000    10.0000000000
 ----------------------------------------------------------------
 Nuclear Repulsion Energy =    12.7593942808 hartrees
 There are       14 alpha and        2 beta electrons
 Requested basis set is 6-31G(d)
 There are 28 shells and 28 basis functions

Total QAlloc Memory Limit   2000 MB
Mega-Array Size        61 MB
MEM_STATIC part        62 MB

finished with qalloc call

                       Distance Matrix (Angstroms)
             H (  1)   H (  2)   H (  3)   H (  4)   H (  5)   H (  6)
   H (  2)  1.810796
   H (  3)  1.811743  1.811096
   H (  4)  1.811550  1.812280  1.811334
   H (  5)  4.496297  5.850083  4.489412  5.627280
   H (  6)  4.725916  5.869865  4.186798  5.281480  1.811990
   H (  7)  2.979609  4.309202  2.851852  3.857161  1.810857  1.810646
   H (  8)  4.172844  5.032787  3.492174  5.022794  1.811342  1.811306
   H (  9)  4.242818  5.835536  5.790604  5.821242  4.702581  6.000866
   H ( 10)  3.205098  4.894635  4.395598  4.807178  3.002077  4.249449
   H ( 11)  2.836997  4.520134  4.473261  4.169896  4.527382  5.341041
   H ( 12)  2.887761  4.238549  4.443838  4.623558  4.526733  5.692091
   He( 13) 18.019814 19.668686 18.271783 18.536629 14.649915 14.507973
   He( 14) 17.180573 17.155792 15.812187 15.974636 16.543567 14.738428
             H (  7)   H (  8)   H (  9)   H ( 10)   H ( 11)   H ( 12)
   H (  8)  1.811625
   H (  9)  4.595234  5.793983
   H ( 10)  2.821383  4.000565  1.810394
   H ( 11)  3.745358  5.283055  1.812032  1.811216
   H ( 12)  4.013964  5.057121  1.811662  1.811206  1.811196
   He( 13) 15.619603 16.016709 16.183241 15.808310 16.461600 17.506362
   He( 14) 15.852028 15.743588 20.035900 18.486813 18.669984 19.573143
             He( 13)
   He( 14) 20.000000


 Q-Chem warning in module /home/nmayhall/qcSoftware/qchem/qchem.svn-casman/forms1/BasisType.C, line 1375:

 SAD: How to set up polarization functions for non-Pople basis?

 Requested basis set is rimp2-VDZ
 There are 82 shells and 186 basis functions
 Job number = 2, Threshold = 1.00E-11
Integral type ranges set in mkLRange.C for JobNum: 2  <1-7|1-7>
Symmetry turned off temporarily
 Using the largest function pair in Schwarz integrals
Total number of integrals generated =            1011
Symmetry turned back on
 A cutoff of  1.0D-11 yielded    285 shell pairs
 There are       285 function pairs
 Job number = 11, Threshold = 1.00E-11
Integral type ranges set in mkLRange.C for JobNum: 11  <1-1|8-8>

 -------------------------------------------------------
 OpenMP Integral Computing Module                       
 Release: version 1.0, May 2013, Q-Chem Inc. Pittsburgh 
 -------------------------------------------------------
 Integral Job Info:
 Integral job number is                      11
 Integral operator is                         1
 short-range coefficients                     0
 long-range coefficients              100000000
 Omega coefficients                           0
 if combine SR and LR in K                    0
 Integral screening is                        0
 Integral computing path is                   2
 max size of driver memory is            800000
 size of driver memory is                 11780
 size of scratch memory is               800000
 max col of scratch BK array                289
 max len of scratch array in speh3            1
 max len of scratch index in speh4            2
 max int batch size is                      520
 min int batch size is                       52
 fixed nKL is                               520
 max L of basis functions is                  0
 order of int derivative is                   0
 number of shells is                         28
 number of basis is                          28
 number of cartesian basis is                28
 number of contracted shell pairs           285
 number of primitive shell pairs            809
 maxK2 (contraction) of shell pair            9
 max number of K2 of shell pair               1
 max number of CS2 of shell pair            147
 max number of PS2 of shell pair            441
 mem total for path MDJ                    6780
 -------------------------------------------------------
 Smallest overlap matrix eigenvalue = 1.98E-01
 Multipole matrices computed through 2nd order

  Scale SEOQF with 1.000000e-02/1.000000e-02/1.000000e-02

 Standard Electronic Orientation quadrupole field applied
 Nucleus-field energy     =     0.0000000005 hartrees
GuessMan:  IGuess = 1
 Guess MOs from core Hamiltonian diagonalization
scfman initvdwdat 
 An unrestricted Hartree-Fock SCF calculation will be
 performed using Pulay DIIS extrapolation
 SCF converges when DIIS error is below 1.0E-08
Finding J and K together
 Job number = 22, Threshold = 1.00E-11
Integral type ranges set in mkLRange.C for JobNum: 22  <1-1|1-1>
Storing 4461.25% of integrals
Total number of integrals generated =           36530
 MakeJK  time:  CPU       0.01 s  wall       0.01 s
Fock build time:  0.01 s (CPU) 0.01 s (wall)
DIIS Errors:  Max 3.52E-01 RMS 3.01E-02

Current DIIS subspace size = 1
REM_GRID_RESTART_DIIS = 0

 ---------------------------------------
  Cycle       Energy         DIIS Error
 ---------------------------------------
    1      -9.4703963388      3.01E-02  00000
Finding J and K together
 Job number = 22, Threshold = 1.00E-11
Integral type ranges set in mkLRange.C for JobNum: 22  <1-1|1-1>
Storing 4461.25% of integrals
Reusing in-core integrals buffer for job 22
 MakeJK  time:  CPU       0.00 s  wall       0.00 s
Fock build time:  0.00 s (CPU) 0.00 s (wall)
DIIS Errors:  Max 2.54E-01 RMS 1.94E-02

Current DIIS subspace size = 2
REM_GRID_RESTART_DIIS = 0

    2     -11.3678760393      1.94E-02  00000
Finding J and K together
 Job number = 22, Threshold = 1.00E-11
Integral type ranges set in mkLRange.C for JobNum: 22  <1-1|1-1>
Storing 4461.25% of integrals
Reusing in-core integrals buffer for job 22
 MakeJK  time:  CPU       0.00 s  wall       0.00 s
Fock build time:  0.00 s (CPU) 0.00 s (wall)
DIIS Errors:  Max 1.06E-01 RMS 8.40E-03

Current DIIS subspace size = 3
REM_GRID_RESTART_DIIS = 0

    3     -11.4366667384      8.40E-03  00000
Finding J and K together
 Job number = 22, Threshold = 1.00E-11
Integral type ranges set in mkLRange.C for JobNum: 22  <1-1|1-1>
Storing 4461.25% of integrals
Reusing in-core integrals buffer for job 22
 MakeJK  time:  CPU       0.00 s  wall       0.00 s
Fock build time:  0.00 s (CPU) 0.00 s (wall)
DIIS Errors:  Max 9.60E-03 RMS 9.35E-04

Current DIIS subspace size = 4
REM_GRID_RESTART_DIIS = 0

    4     -11.4670959072      9.35E-04  00000
Finding J and K together
 Job number = 22, Threshold = 1.00E-11
Integral type ranges set in mkLRange.C for JobNum: 22  <1-1|1-1>
Storing 4461.25% of integrals
Reusing in-core integrals buffer for job 22
 MakeJK  time:  CPU       0.00 s  wall       0.00 s
Fock build time:  0.00 s (CPU) 0.00 s (wall)
DIIS Errors:  Max 1.42E-04 RMS 1.11E-05

Current DIIS subspace size = 5
REM_GRID_RESTART_DIIS = 0

    5     -11.4697570168      1.11E-05  00000
Finding J and K together
 Job number = 22, Threshold = 1.00E-11
Integral type ranges set in mkLRange.C for JobNum: 22  <1-1|1-1>
Storing 4461.25% of integrals
Reusing in-core integrals buffer for job 22
 MakeJK  time:  CPU       0.00 s  wall       0.00 s
Fock build time:  0.00 s (CPU) 0.00 s (wall)
DIIS Errors:  Max 1.16E-05 RMS 8.79E-07

Current DIIS subspace size = 6
REM_GRID_RESTART_DIIS = 0

    6     -11.4698640532      8.79E-07  00000
Finding J and K together
 Job number = 22, Threshold = 1.00E-11
Integral type ranges set in mkLRange.C for JobNum: 22  <1-1|1-1>
Storing 4461.25% of integrals
Reusing in-core integrals buffer for job 22
 MakeJK  time:  CPU       0.00 s  wall       0.00 s
Fock build time:  0.00 s (CPU) 0.00 s (wall)
DIIS Errors:  Max 7.83E-07 RMS 6.35E-08

Current DIIS subspace size = 7
REM_GRID_RESTART_DIIS = 0

    7     -11.4698804771      6.35E-08  00000
Finding J and K together
 Job number = 22, Threshold = 1.00E-11
Integral type ranges set in mkLRange.C for JobNum: 22  <1-1|1-1>
Storing 4461.25% of integrals
Reusing in-core integrals buffer for job 22
 MakeJK  time:  CPU       0.00 s  wall       0.00 s
Fock build time:  0.00 s (CPU) 0.00 s (wall)
DIIS Errors:  Max 1.25E-07 RMS 9.80E-09

Current DIIS subspace size = 8
REM_GRID_RESTART_DIIS = 0

    8     -11.4698835603      9.80E-09  00000 Convergence criterion met
 ---------------------------------------
 <S^2> = 42.0000
 SCF time:  CPU 0.04 s  wall 0.04 s
 SCF   energy in the final basis set = -11.4698835603
 Total energy in the final basis set = -11.4698835603
Symmetry turned off temporarily
 Analysis of SCF Wavefunction

 --------------------------------------------------------------

                    Orbital Energies (a.u.)
 --------------------------------------------------------------

 Alpha MOs
 -- Occupied --
 -0.914  -0.914  -0.712  -0.699  -0.698  -0.474  -0.468  -0.463
 -0.455  -0.453  -0.452  -0.444  -0.440  -0.433
 -- Virtual --
  0.812   0.859   0.866   0.903   0.922   0.928   0.974   0.983
  1.005   1.056   1.153   1.169   1.400   1.400

 Beta MOs
 -- Occupied --
 -0.914  -0.914
 -- Virtual --
 -0.054  -0.034  -0.033   0.132   0.143   0.147   0.160   0.164
  0.167   0.184   0.191   0.203   1.039   1.074   1.080   1.109
  1.125   1.130   1.172   1.179   1.200   1.259   1.349   1.363
  1.400   1.400
 --------------------------------------------------------------

          Ground-State Mulliken Net Atomic Charges

     Atom                 Charge (a.u.)    Spin (a.u.)
  --------------------------------------------------------
      1 H                     0.000065       0.999935
      2 H                     0.000033       0.999967
      3 H                    -0.000018       1.000018
      4 H                     0.000002       0.999998
      5 H                    -0.000034       1.000034
      6 H                     0.000028       0.999972
      7 H                     0.000029       0.999971
      8 H                    -0.000036       1.000036
      9 H                     0.000071       0.999929
     10 H                     0.000022       0.999978
     11 H                    -0.000082       1.000082
     12 H                    -0.000080       1.000080
     13 He                    0.000000       0.000000
     14 He                    0.000000       0.000000
  --------------------------------------------------------
  Sum of atomic charges =    -0.000000
  Sum of spin   charges =    12.000000

 -----------------------------------------------------------------
                    Cartesian Multipole Moments
 -----------------------------------------------------------------
    Charge (ESU x 10^10)
                 0.0000
    Dipole Moment (Debye)
         X      -0.0001      Y      -0.0005      Z       0.0004
       Tot       0.0006
    Quadrupole Moments (Debye-Ang)
        XX     -19.6513     XY       0.0174     YY     -19.5918
        XZ      -0.0006     YZ      -0.0207     ZZ     -19.5111
    Octopole Moments (Debye-Ang^2)
       XXX     -19.5326    XXY     -33.3543    XYY      -4.8542
       YYY    -103.1145    XXZ     -22.8999    XYZ      -0.0151
       YYZ     -23.8531    XZZ      -4.1088    YZZ     -33.3304
       ZZZ     -70.7099
    Hexadecapole Moments (Debye-Ang^3)
      XXXX   -1642.9237   XXXY     -10.1011   XXYY    -558.8954
      XYYY      -8.8968   YYYY   -1697.6267   XXXZ       3.4316
      XXYZ    -214.0082   XYYZ       0.0828   YYYZ    -650.5515
      XXZZ    -491.0247   XYZZ      -2.8334   YYZZ    -508.6244
      XZZZ       4.4631   YZZZ    -645.7516   ZZZZ   -1318.2285
 -----------------------------------------------------------------
 JobOver = TRUE
Archival summary:
1\1\sinatra\SP\HF\6-31G*\e212()\nmayhall\MonMar2016:11:002017MonMar2016:11:002017\0\\#,HF,6-31G*,\\0,13\H\H,1,1.81065\H,1,1.81086,2,60.0452\H,2,1.81131,1,60.0237,3,-70.5123,0\H,1,2.82138,2,131.869,3,-31.317,0\H,5,1.81039,1,165.238,2,-117.033,0\H,5,1.81121,1,118.465,2,162.897,0\H,7,1.8112,5,60.0005,1,92.5879,0\H,8,2.837,7,73.0863,5,-92.9521,0\H,9,1.8108,8,152.386,7,-68.5028,0\H,10,1.8111,9,60.0291,8,178.05,0\H,11,1.81133,10,60.0389,9,70.5227,0\He,2,14.508,1,125.104,3,67.472,0\He,2,14.7384,1,125.228,3,-178.985,0\\HF=-11.4698836\\@

 Total job time:  0.10s(wall), 0.10s(cpu) 
 Mon Mar 20 16:11:00 2017

        *************************************************************
        *                                                           *
        *  Thank you very much for using Q-Chem.  Have a nice day.  *
        *                                                           *
        *************************************************************


*** MISSION COMPLETED -- STARFLEET OUT ***

 
User input: 2 of 2 
 
                  Welcome to Q-Chem
     A Quantum Leap Into The Future Of Chemistry


 Q-Chem 4.3, Q-Chem, Inc., Pleasanton, CA (2015)

 Y. Shao,  Z. Gan,  E. Epifanovsky,  A. T. B. Gilbert,  M. Wormit,  
 J. Kussmann,  A. W. Lange,  A. Behn,  J. Deng,  X. Feng,  D. Ghosh,  
 M. Goldey,  P. R. Horn,  L. D. Jacobson,  I. Kaliman,  R. Z. Khaliullin,  
 T. Kus,  A. Landau,  J. Liu,  E. I. Proynov,  Y. M. Rhee,  R. M. Richard,  
 M. A. Rohrdanz,  R. P. Steele,  E. J. Sundstrom,  H. L. Woodcock III,  
 P. M. Zimmerman,  D. Zuev,  B. Albrecht,  E. Alguire,  B. Austin,  
 S. A. Baeppler,  G. J. O. Beran,  Y. A. Bernard,  E. Berquist,  
 K. Brandhorst,  K. B. Bravaya,  S. T. Brown,  D. Casanova,  C.-M. Chang,  
 Y. Chen,  S. H. Chien,  K. D. Closser,  D. L. Crittenden,  M. Diedenhofen,  
 R. A. DiStasio Jr.,  H. Do,  A. D. Dutoi,  R. G. Edgar,  P.-T. Fang,  
 S. Fatehi,  Q. Feng,  L. Fusti-Molnar,  A. Ghysels,  
 A. Golubeva-Zadorozhnaya,  J. Gomes,  A. Gunina,  M. W. D. Hanson-Heine,  
 P. H. P. Harbach,  A. W. Hauser,  E. G. Hohenstein,  Z. C. Holden,  K. Hui,  
 T.-C. Jagau,  H. Ji,  B. Kaduk,  K. Khistyaev,  Jaehoon Kim,  Jihan Kim,  
 R. A. King,  P. Klunzinger,  D. Kosenkov,  T. Kowalczyk,  C. M. Krauter,  
 K. U. Lao,  A. Laurent,  K. V. Lawler,  S. Lehtola,  S. V. Levchenko,  
 C. Y. Lin,  Y.-S. Lin,  F. Liu,  E. Livshits,  R. C. Lochan,  A. Luenser,  
 P. Manohar,  S. F. Manzer,  S.-P. Mao,  N. Mardirossian,  A. V. Marenich,  
 L. A. Martinez-Martinez,  S. A. Maurer,  N. J. Mayhall,  K. Nanda,  
 C. M. Oana,  R. Olivares-Amaya,  D. P. O'Neill,  J. A. Parkhill,  
 T. M. Perrine,  R. Peverati,  P. A. Pieniazek,  F. Plasser,  A. Prociuk,  
 D. R. Rehn,  E. Rosta,  N. J. Russ,  N. Sergueev,  S. M. Sharada,  
 S. Sharma,  D. W. Small,  A. Sodt,  T. Stauch,  T. Stein,  D. Stuck,  
 Y.-C. Su,  A. J. W. Thom,  T. Tsuchimochi,  L. Vogt,  O. Vydrov,  T. Wang,  
 M. A. Watson,  J. Wenzel,  A. White,  C. F. Williams,  V. Vanovschi,  
 S. Yeganeh,  S. R. Yost,  Z.-Q. You,  I. Y. Zhang,  X. Zhang,  Y. Zhao,  
 B. R. Brooks,  G. K. L. Chan,  D. M. Chipman,  C. J. Cramer,  
 W. A. Goddard III,  M. S. Gordon,  W. J. Hehre,  A. Klamt,  
 H. F. Schaefer III,  M. W. Schmidt,  C. D. Sherrill,  D. G. Truhlar,  
 A. Warshel,  X. Xu,  A. Aspuru-Guzik,  R. Baer,  A. T. Bell,  N. A. Besley,  
 J.-D. Chai,  A. Dreuw,  B. D. Dunietz,  T. R. Furlani,  S. R. Gwaltney,  
 C.-P. Hsu,  Y. Jung,  J. Kong,  D. S. Lambrecht,  W. Liang,  C. Ochsenfeld,  
 V. A. Rassolov,  L. V. Slipchenko,  J. E. Subotnik,  T. Van Voorhis,  
 J. M. Herbert,  A. I. Krylov,  P. M. W. Gill,  M. Head-Gordon

 Contributors to earlier versions of Q-Chem not listed above: 
 R. D. Adamson,  J. Baker,  E. F. C. Byrd,  A. K. Chakraborty,  C.-L. Cheng,  
 H. Dachsel,  R. J. Doerksen,  G. Hawkins,  A. Heyden,  S. Hirata,  
 G. Kedziora,  F. J. Keil,  C. Kelley,  P. P. Korambath,  W. Kurlancheek,  
 A. M. Lee,  M. S. Lee,  D. Liotard,  I. Lotan,  P. E. Maslen,  N. Nair,  
 D. Neuhauser,  R. Olson,  B. Peters,  J. Ritchie,  N. E. Schultz,  
 N. Shenvi,  A. C. Simmonett,  K. S. Thanthiriwatte,  Q. Wu,  W. Zhang

 Please cite Q-Chem as follows:
 Y. Shao et al., Mol. Phys. 113, 184-215 (2015)
 DOI: 10.1080/00268976.2014.952696

 Q-Chem 4.3.0 for Intel X86 EM64T Linux

 Parts of Q-Chem use Armadillo 5.200.1 (Boston Tea Smuggler).
 http://arma.sourceforge.net/

 Q-Chem begins on Mon Mar 20 16:11:00 2017  


Host: 0

     Scratch files written to /home/nmayhall/scratch_qchem/03//
 Dec1416 |home|nmayhall|qcSoftware|qchem|qchem.svn-casman|libmdc|qstr_RNUM -1
 Using version located at /home/nmayhall/qcSoftware/qchem/qchem.svn-casman/bin/qchem

 Turning off symmetry for CASMAN

Total Memory Limit in MB = 2000
Mega-Array Size in MB = 62

Checking the input file for inconsistencies... 	...done.

 Q-Chem warning in module /home/nmayhall/qcSoftware/qchem/qchem.svn-casman/forms1/BasisType.C, line 1452:

 You are not using the predefined 5D/6D in this basis set.

Finally everything over in PARseQInput

--------------------------------------------------------------
User input:
--------------------------------------------------------------
$rem
	exchange 		hf
	unrestricted		0
	basis			6-31g*	
	aux_basis		rimp2-vdz
	scf_guess		read	
	scf_convergence		8
	purecart		1111

	symmetry		0
	sym_ignore		1

	correlation		sf-cas
	cas_n_spin_flip		1
	cas_local		1
	gui			2
$end

$development
	1sf_heis_projection	1
	scf_corresponding_orbs	1
$end

$molecule
read
$end

--------------------------------------------------------------
 ----------------------------------------------------------------
             Standard Nuclear Orientation (Angstroms)
    I     Atom           X                Y                Z
 ----------------------------------------------------------------
    1      H      -0.7385400000    -0.5406500000     0.0857600000
    2      H      -2.3134000000    -1.0174800000    -0.6701700000
    3      H      -2.0958200000     0.6554900000    -0.0114600000
    4      H      -2.2104400000    -0.7543700000     1.1199500000
    5      H       1.4767400000     3.3720300000     0.0982800000
    6      H       0.1685000000     3.9602200000     1.2054600000
    7      H       0.1828700000     2.2348000000     0.6566800000
    8      H      -0.2168600000     3.5552800000    -0.5174300000
    9      H       3.4885000000    -0.8755300000    -0.0608400000
   10      H       2.2964900000     0.4857800000    -0.0019100000
   11      H       1.9396000000    -1.0667600000     0.8599200000
   12      H       1.9158800000    -1.0096500000    -0.9502200000
   13      He     10.0000000000    10.0000000000    10.0000000000
   14      He    -10.0000000000    10.0000000000    10.0000000000
 ----------------------------------------------------------------
 Nuclear Repulsion Energy =    12.7593942808 hartrees
 There are       14 alpha and        2 beta electrons
 Requested basis set is 6-31G(d)
 There are 28 shells and 28 basis functions

Total QAlloc Memory Limit   2000 MB
Mega-Array Size        61 MB
MEM_STATIC part        62 MB

finished with qalloc call

                       Distance Matrix (Angstroms)
             H (  1)   H (  2)   H (  3)   H (  4)   H (  5)   H (  6)
   H (  2)  1.810796
   H (  3)  1.811743  1.811096
   H (  4)  1.811550  1.812280  1.811334
   H (  5)  4.496297  5.850083  4.489412  5.627280
   H (  6)  4.725916  5.869865  4.186798  5.281480  1.811990
   H (  7)  2.979609  4.309202  2.851852  3.857161  1.810857  1.810646
   H (  8)  4.172844  5.032787  3.492174  5.022794  1.811342  1.811306
   H (  9)  4.242818  5.835536  5.790604  5.821242  4.702581  6.000866
   H ( 10)  3.205098  4.894635  4.395598  4.807178  3.002077  4.249449
   H ( 11)  2.836997  4.520134  4.473261  4.169896  4.527382  5.341041
   H ( 12)  2.887761  4.238549  4.443838  4.623558  4.526733  5.692091
   He( 13) 18.019814 19.668686 18.271783 18.536629 14.649915 14.507973
   He( 14) 17.180573 17.155792 15.812187 15.974636 16.543567 14.738428
             H (  7)   H (  8)   H (  9)   H ( 10)   H ( 11)   H ( 12)
   H (  8)  1.811625
   H (  9)  4.595234  5.793983
   H ( 10)  2.821383  4.000565  1.810394
   H ( 11)  3.745358  5.283055  1.812032  1.811216
   H ( 12)  4.013964  5.057121  1.811662  1.811206  1.811196
   He( 13) 15.619603 16.016709 16.183241 15.808310 16.461600 17.506362
   He( 14) 15.852028 15.743588 20.035900 18.486813 18.669984 19.573143
             He( 13)
   He( 14) 20.000000


 Q-Chem warning in module /home/nmayhall/qcSoftware/qchem/qchem.svn-casman/forms1/BasisType.C, line 1375:

 SAD: How to set up polarization functions for non-Pople basis?

 Requested basis set is rimp2-VDZ
 There are 82 shells and 186 basis functions
 Job number = 2, Threshold = 1.00E-12
Integral type ranges set in mkLRange.C for JobNum: 2  <1-7|1-7>
Symmetry turned off temporarily
 Using the largest function pair in Schwarz integrals
Total number of integrals generated =            1015
Symmetry turned back on
 A cutoff of  1.0D-12 yielded    289 shell pairs
 There are       289 function pairs
 Job number = 11, Threshold = 1.00E-12
Integral type ranges set in mkLRange.C for JobNum: 11  <1-1|8-8>

 -------------------------------------------------------
 OpenMP Integral Computing Module                       
 Release: version 1.0, May 2013, Q-Chem Inc. Pittsburgh 
 -------------------------------------------------------
 Integral Job Info:
 Integral job number is                      11
 Integral operator is                         1
 short-range coefficients                     0
 long-range coefficients              100000000
 Omega coefficients                           0
 if combine SR and LR in K                    0
 Integral screening is                        0
 Integral computing path is                   2
 max size of driver memory is            800000
 size of driver memory is                 11780
 size of scratch memory is               800000
 max col of scratch BK array                289
 max len of scratch array in speh3            1
 max len of scratch index in speh4            2
 max int batch size is                      520
 min int batch size is                       52
 fixed nKL is                               520
 max L of basis functions is                  0
 order of int derivative is                   0
 number of shells is                         28
 number of basis is                          28
 number of cartesian basis is                28
 number of contracted shell pairs           289
 number of primitive shell pairs            813
 maxK2 (contraction) of shell pair            9
 max number of K2 of shell pair               1
 max number of CS2 of shell pair            147
 max number of PS2 of shell pair            441
 mem total for path MDJ                    6780
 -------------------------------------------------------
 Smallest overlap matrix eigenvalue = 1.98E-01
 Multipole matrices computed through 2nd order

  Scale SEOQF with 1.000000e-02/1.000000e-02/1.000000e-02

 Standard Electronic Orientation quadrupole field applied
 Nucleus-field energy     =     0.0000000005 hartrees
GuessMan:  IGuess = 1000
 Guess MOs from SCF MO coefficient file
 Reading MOs from coefficient file
 Reading MOs from coefficient file
scfman initvdwdat 
 A restricted Hartree-Fock SCF calculation will be
 performed using Geometric Direct Minimization
 SCF converges when RMS gradient is below 1.0E-08
Finding J and K together
 Job number = 22, Threshold = 1.00E-12
Integral type ranges set in mkLRange.C for JobNum: 22  <1-1|1-1>
Storing 4338.82% of integrals
Total number of integrals generated =           38005
 MakeJK  time:  CPU       0.01 s  wall       0.01 s
Fock build time:  0.01 s (CPU) 0.01 s (wall)
 ---------------------------------------
  Cycle       Energy        RMS Gradient
 ---------------------------------------
    1     -11.4698839179      2.52E-04  00000 Normal BFGS step
Finding J and K together
 Job number = 22, Threshold = 1.00E-12
Integral type ranges set in mkLRange.C for JobNum: 22  <1-1|1-1>
Storing 4338.82% of integrals
Reusing in-core integrals buffer for job 22
 MakeJK  time:  CPU       0.00 s  wall       0.00 s
Fock build time:  0.00 s (CPU) 0.00 s (wall)
    2     -11.4698839516      2.33E-09  00000 Convergence criterion met
 ---------------------------------------
 SCF time:  CPU 0.02 s  wall 0.02 s
 Obtaining Corresponding orbitals

 Forming corresponding orbitals block-by-block...
 Size of singly occupied alpha block:      12 : 12.0000
 Size of doubly occupied block:             2 : 2.0000
 Size of singly occupied beta block:        0 : 0.0000
 Size of unoccupied block:                 14 : 14.0000
 Use scf_boys =     0 (Canonical)
                    1 (Boys)
                    2 (Pipek-Mezey)
                    3 (ER)
 Build new fock matrix
 I'm here
 I'm here
 Calling AOints...
 Job number = 22, Threshold = 1.00E-12
Integral type ranges set in mkLRange.C for JobNum: 22  <1-1|1-1>
Storing 4338.82% of integrals
 done.
 E(SCF): disk=    -11.469883951582 current=    -11.469883951582 diff=  -3.553e-15
 SCF   energy in the final basis set = -11.4698839516
 Total energy in the final basis set = -11.4698839516
 DevKeyword Parameters: 
 1sf_heis_projection                   1
scf_corresponding_orbs                   1


 ========================================================
                       In SF-CAS-CI                      
 ========================================================
 DevKeyword Parameters: 
 1sf_heis_projection                   1
scf_corresponding_orbs                   1

 Forming orbitals for SF-CAS calculation.
NBas   : 28
NOrb   : 28
NDOcc  : 2
NSOcc  : 12
NDVir  : 14
ISpin  : 0
e_hf: -11.46988395
 Using OPT1 Orbitals: Favg | Favg | Favg 
 A/B mix in Doubly occupied F  : 0.50000000
 A/B mix in Singly occupied F  : 0.50000000
 A/B mix in Doubly unoccupied F: 0.50000000
 Max of F(beta)ds      : 8.098e-16
 Max of F(alpha)sv     : 1.978e-11
 Max of F(average)dv   : 1.341e-10
 Orbital Energies  (D):
    1    -0.91413131    -0.91413131
    2    -0.91412541    -0.91412541
 Orbital Energies  (S):
    3    -0.36913266    -0.36913266
    4    -0.35401846    -0.35401846
    5    -0.35298384    -0.35298384
    6    -0.15022036    -0.15022036
    7    -0.14247215    -0.14247215
    8    -0.13787227    -0.13787227
    9    -0.12876662    -0.12876662
   10    -0.12608693    -0.12608693
   11    -0.12462702    -0.12462702
   12    -0.11307165    -0.11307165
   13    -0.10897586    -0.10897586
   14    -0.10013759    -0.10013759
 Orbital Energies  (V):
   15     0.90404686     0.90404686
   16     0.94624447     0.94624447
   17     0.95294951     0.95294951
   18     0.98700820     0.98700820
   19     1.00495073     1.00495073
   20     1.01092230     1.01092230
   21     1.05647543     1.05647543
   22     1.06423336     1.06423336
   23     1.08675648     1.08675648
   24     1.14451069     1.14451069
   25     1.23936228     1.23936228
   26     1.25388001     1.25388001
   27     1.39985465     1.39985465
   28     1.39986055     1.39986055
 tr(Pa)     :   14.0000000000
 tr(Pb)     :    2.0000000000
 E(core) with new P : -38.60957618
 E(HF) with new P   : -11.46988395
 Difference in Ehf  :  -3.5527e-14

 Number of spin flips: 1
 Use cas_local =    0 (Canonical)
                    1 (Boys)
                    2 (Pipek-Mezey)
                    3 (ER)
 Using Boys orbitals in casman
 
 
 
Calling Get_Boys in C++
 
 
 
Orbital 8 Variance 18.90083499
Orbital 9 Variance 22.12482937
Orbital 2 Variance 23.09832293
Orbital 12 Variance 23.32330022
Orbital 3 Variance 23.49732959
Orbital 5 Variance 23.54697566
Orbital 10 Variance 25.62763686
Orbital 11 Variance 25.72456621
Orbital 1 Variance 26.61840842
Orbital 6 Variance 27.66503041
Orbital 4 Variance 28.93564142
Orbital 7 Variance 28.97598371
          ***** NUMBER OF SADDLE POINTS SO FAR = 0 ******

Initially in boys_jacobi.C before sweep, get_boys, boysval = 91.081886
In BOYS_JACOBI SWEEPS for get_boys, ending in round     6  because max_diff = 5.733487e-07


---> BEGIN 2nd Der Calculation    ******  
Guessing MaxD =  20 and MinD = 10
in get_boys.C: p = 0 guessthresh  52.5206090594 numsofar 18 MinD 10
in get_boys.C: p = 1 guessthresh  52.0206090594 numsofar 18 MinD 10
in get_boys.C: p = 2 guessthresh  51.7706090594 numsofar 16 MinD 10
in get_boys.C: p = 3 guessthresh  51.6456090594 numsofar 5 MinD 10
DimInGuess 5 mineval  51.5206090594 guessthresh  51.6456090594
round 0 sizeofsub 5 eval0 5.094235e+01 diffeval0 1.000499e+05 length_qM 1.103307e+00 thresh 1.000000e-08
round 1 sizeofsub 6 eval0 5.036079e+01 diffeval0 5.815568e-01 length_qM 1.057962e-01 thresh 1.000000e-08
round 2 sizeofsub 7 eval0 5.036044e+01 diffeval0 3.524745e-04 length_qM 1.968249e-02 thresh 1.000000e-08
round 3 sizeofsub 8 eval0 5.035926e+01 diffeval0 1.185051e-03 length_qM 3.478306e-01 thresh 1.000000e-08
round 4 sizeofsub 9 eval0 5.035711e+01 diffeval0 2.150072e-03 length_qM 1.701055e-02 thresh 1.000000e-08
round 5 sizeofsub 10 eval0 5.035710e+01 diffeval0 4.797393e-06 length_qM 1.125986e-02 thresh 1.000000e-08
round 6 sizeofsub 11 eval0 5.035709e+01 diffeval0 1.344819e-05 length_qM 3.654126e-03 thresh 1.000000e-08
round 7 sizeofsub 12 eval0 5.035709e+01 diffeval0 1.842305e-07 length_qM 1.521415e-03 thresh 1.000000e-08
round 8 sizeofsub 13 eval0 5.035709e+01 diffeval0 1.344016e-08 length_qM 4.406058e-05 thresh 1.000000e-08
round 9 sizeofsub 14 eval0 5.035709e+01 diffeval0 1.130047e-08 length_qM 9.151711e-04 thresh 1.000000e-08
round 10 sizeofsub 15 eval0 5.035512e+01 diffeval0 1.966423e-03 length_qM 4.020212e-01 thresh 1.000000e-08
round 11 sizeofsub 16 eval0 5.035386e+01 diffeval0 1.263627e-03 length_qM 6.406190e-02 thresh 1.000000e-08
round 12 sizeofsub 17 eval0 5.035233e+01 diffeval0 1.524052e-03 length_qM 1.000487e-01 thresh 1.000000e-08
round 13 sizeofsub 18 eval0 5.035222e+01 diffeval0 1.143463e-04 length_qM 4.096203e-02 thresh 1.000000e-08
round 14 sizeofsub 19 eval0 5.035194e+01 diffeval0 2.779299e-04 length_qM 1.003377e-01 thresh 1.000000e-08
round 15 sizeofsub 20 eval0 5.034907e+01 diffeval0 2.875904e-03 length_qM 6.011165e-02 thresh 1.000000e-08
round 16 sizeofsub 11 eval0 5.034896e+01 diffeval0 1.079587e-04 length_qM 8.509823e-02 thresh 1.000000e-08
round 17 sizeofsub 12 eval0 5.034877e+01 diffeval0 1.926961e-04 length_qM 7.988591e-03 thresh 1.000000e-08
round 18 sizeofsub 13 eval0 5.034876e+01 diffeval0 2.283901e-06 length_qM 2.380274e-03 thresh 1.000000e-08
round 19 sizeofsub 14 eval0 5.034876e+01 diffeval0 5.453762e-06 length_qM 2.213642e-02 thresh 1.000000e-08
round 20 sizeofsub 15 eval0 5.034875e+01 diffeval0 5.939668e-06 length_qM 9.536603e-04 thresh 1.000000e-08
round 21 sizeofsub 16 eval0 5.034875e+01 diffeval0 6.382898e-09 length_qM 2.534195e-04 thresh 1.000000e-08
round 22 sizeofsub 17 eval0 5.034875e+01 diffeval0 1.194458e-09 length_qM 1.197939e-04 thresh 1.000000e-08
round 23 sizeofsub 18 eval0 5.034875e+01 diffeval0 2.444096e-09 length_qM 7.146223e-05 thresh 1.000000e-08
round 24 sizeofsub 19 eval0 5.034875e+01 diffeval0 3.011991e-11 length_qM 2.010070e-05 thresh 1.000000e-08
round 25 sizeofsub 20 eval0 5.034875e+01 diffeval0 3.247180e-12 length_qM 5.074400e-07 thresh 1.000000e-08
Converged to smallest eigenvalue: eval0 5.034875e+01

Success!!! No Negative Eigenvalues: Ending Get Boys in C++ ...Bye Bye
Orbital 12 Variance 2.75968607
Orbital 5 Variance 2.76189971
Orbital 11 Variance 2.76580978
Orbital 6 Variance 2.77069684
Orbital 9 Variance 2.77132585
Orbital 4 Variance 2.77247121
Orbital 10 Variance 2.77330897
Orbital 1 Variance 2.77532173
Orbital 2 Variance 2.77561167
Orbital 3 Variance 2.77566196
Orbital 7 Variance 2.77600616
Orbital 8 Variance 2.77613693
EXECUTING ORTHO_FUNC DESTRUCTOR

 Dimensions of orbital sub-spaces:    
 Number Hole Orbs:Alpha:Beta:       2    2    2
 Number Active Orbs:Alpha:Beta:    12   11    1
 Number Part Orbs:Alpha:Beta:      14    0    0

 Dimensions in SF-RAS-hp calculation: 
 Number of active space determinants:  144
 Number of hole space determinants:    1608
 Number of part space determinants:    11256
 Number of hole-part determinants:     130060
 Total 1x space:                       13008
 Total singles space:                  143068
 REM_MEM_TOT: 2000
 Memory Used: 0
 Memory Left: 2000
 Memory Need: 2
 Constructing 1e MO integrals
 Form (P|Q)**(-1/2)...
 Job number = 66, Threshold = 1.00E-12
Integral type ranges set in mkLRange.C for JobNum: 66  <2-7|2-7>
Symmetry turned off temporarily
Storing 4338.82% of integrals
Total number of integrals generated =           19965
Symmetry turned back on
 Forming (pq|P)...
 Forming Active-Active (aa|P) integrals...

 Entering first-index batching code with I1Strt =    3 batch size =   12
 Job number = 65, Threshold = 1.00E-12
Integral type ranges set in mkLRange.C for JobNum: 65  <1-1|2-7>
Symmetry turned off temporarily
Storing 4338.82% of integrals
Total number of integrals generated =           57222
Symmetry turned back on
 Forming Active-Active B integrals...
 Contracting B matrices to form 2e integrals. 
 Forming 2J-K over o,v with exact integrals
 Calling AOints... Job number = 22, Threshold = 1.00E-12
Integral type ranges set in mkLRange.C for JobNum: 22  <1-1|1-1>
Storing 4338.82% of integrals
Total number of integrals generated =           38005
 done.

 ROHF energy found on disk: 
 E(ROHF):         -11.46988395
-11.46988395
 First 10 Diagonal elements of H: 
 11111111111_ | 1___________        -10.91981710
 11111111111_ | _1__________        -11.07740263
 11111111111_ | __1_________        -10.92858921
 11111111111_ | ___1________        -10.93657304
 11111111111_ | ____1_______        -10.98524117
 11111111111_ | _____1______        -10.99397100
 11111111111_ | ______1_____        -10.94374643
 11111111111_ | _______1____        -11.07734353
 11111111111_ | ________1___        -10.94637929
 11111111111_ | _________1__        -11.07611277
 Fill S2_CAS Matrix...  done.
 Fill H_CAS Matrix...  done.

 Diagonalizing H_CAS 
 Entering cast_sfcas_to_sfcis
 ===================================================================
 Theory           State:          Energy (au)       (eV)       <S2>
 -------------------------------------------------------------------
 SF-CAS               1:       -11.5289767054     0.0000    30.0000
 SF-CAS               2:       -11.5280344288     0.0256    30.0000
 SF-CAS               3:       -11.5274159777     0.0425    30.0000
 SF-CAS               4:       -11.5266938446     0.0621    30.0000
 SF-CAS               5:       -11.5264864085     0.0678    30.0000
 SF-CAS               6:       -11.5264412157     0.0690    30.0000
 SF-CAS               7:       -11.5261915074     0.0758    30.0000
 SF-CAS               8:       -11.5260976725     0.0783    30.0000
 SF-CAS               9:       -11.5260302126     0.0802    30.0000
 SF-CAS              10:       -11.4714526205     1.5653    30.0000
 SF-CAS              11:       -11.4713253397     1.5688    30.0000
 SF-CAS              12:       -11.4698839516     1.6080    42.0000
 SF-CAS              13:       -11.2087523373     8.7138    30.0000
 SF-CAS              14:       -11.2076038195     8.7451    30.0000
 SF-CAS              15:       -11.2040917921     8.8407    30.0000
 SF-CAS              16:       -11.2033907359     8.8597    30.0000
 SF-CAS              17:       -11.2029632294     8.8714    30.0000
 SF-CAS              18:       -11.2024178703     8.8862    30.0000
 SF-CAS              19:       -11.2020121582     8.8972    30.0000
 SF-CAS              20:       -11.2015267646     8.9105    30.0000
 SF-CAS              21:       -11.2008383351     8.9292    30.0000
 SF-CAS              22:       -11.1864877670     9.3197    30.0000
 SF-CAS              23:       -11.1824654449     9.4291    30.0000
 SF-CAS              24:       -11.1789635481     9.5244    30.0000
 SF-CAS              25:       -11.1747539967     9.6390    30.0000
 SF-CAS              26:       -11.1722080091     9.7083    30.0000
 SF-CAS              27:       -11.1705644869     9.7530    30.0000
 SF-CAS              28:       -11.1620488414     9.9847    30.0000
 SF-CAS              29:       -11.1592112087    10.0619    30.0000
 SF-CAS              30:       -11.1564658399    10.1366    30.0000
 SF-CAS              31:       -11.1505010618    10.2989    30.0000
 SF-CAS              32:       -11.1446305834    10.4587    30.0000
 SF-CAS              33:       -11.1434569028    10.4906    30.0000
 SF-CAS              34:       -11.1433163024    10.4945    30.0000
 SF-CAS              35:       -11.1384384840    10.6272    30.0000
 SF-CAS              36:       -11.1340284418    10.7472    30.0000
 SF-CAS              37:       -11.1325259257    10.7881    30.0000
 SF-CAS              38:       -11.1299759476    10.8575    30.0000
 SF-CAS              39:       -11.1286431301    10.8937    30.0000
 SF-CAS              40:       -11.0863687678    12.0441    30.0000
 SF-CAS              41:       -11.0858020589    12.0595    30.0000
 SF-CAS              42:       -11.0851994991    12.0759    30.0000
 SF-CAS              43:       -11.0843910196    12.0979    30.0000
 SF-CAS              44:       -11.0835382642    12.1211    30.0000
 SF-CAS              45:       -11.0832553745    12.1288    30.0000
 SF-CAS              46:       -11.0813426769    12.1809    30.0000
 SF-CAS              47:       -11.0812816521    12.1825    30.0000
 SF-CAS              48:       -11.0805504213    12.2024    30.0000
 SF-CAS              49:       -11.0802320787    12.2111    30.0000
 SF-CAS              50:       -11.0799302425    12.2193    30.0000
 SF-CAS              51:       -11.0793421648    12.2353    30.0000
 SF-CAS              52:       -11.0787586219    12.2512    30.0000
 SF-CAS              53:       -11.0782413408    12.2653    30.0000
 SF-CAS              54:       -11.0773518116    12.2895    30.0000
 SF-CAS              55:       -11.0767128891    12.3068    30.0000
 SF-CAS              56:       -11.0765164536    12.3122    30.0000
 SF-CAS              57:       -11.0738280633    12.3853    30.0000
 SF-CAS              58:       -10.9914892062    14.6259    30.0000
 SF-CAS              59:       -10.9895575328    14.6785    30.0000
 SF-CAS              60:       -10.9873998963    14.7372    30.0000
 SF-CAS              61:       -10.9856688078    14.7843    30.0000
 SF-CAS              62:       -10.9807148953    14.9191    30.0000
 SF-CAS              63:       -10.9784906544    14.9796    30.0000
 SF-CAS              64:       -10.9709899224    15.1837    30.0000
 SF-CAS              65:       -10.9693428164    15.2286    30.0000
 SF-CAS              66:       -10.9661089992    15.3166    30.0000
 SF-CAS              67:       -10.9636717226    15.3829    30.0000
 SF-CAS              68:       -10.9605904765    15.4667    30.0000
 SF-CAS              69:       -10.9570894672    15.5620    30.0000
 SF-CAS              70:       -10.9541830315    15.6411    30.0000
 SF-CAS              71:       -10.9541218220    15.6427    30.0000
 SF-CAS              72:       -10.9517259176    15.7079    30.0000
 SF-CAS              73:       -10.9507386729    15.7348    30.0000
 SF-CAS              74:       -10.9492886649    15.7743    30.0000
 SF-CAS              75:       -10.9479311932    15.8112    30.0000
 SF-CAS              76:       -10.9467720545    15.8427    30.0000
 SF-CAS              77:       -10.9460681572    15.8619    30.0000
 SF-CAS              78:       -10.9422617108    15.9655    30.0000
 SF-CAS              79:       -10.9411505117    15.9957    30.0000
 SF-CAS              80:       -10.9390646029    16.0525    30.0000
 SF-CAS              81:       -10.9369419890    16.1102    30.0000
 SF-CAS              82:       -10.9360806105    16.1337    30.0000
 SF-CAS              83:       -10.9357470808    16.1428    30.0000
 SF-CAS              84:       -10.9351305444    16.1595    30.0000
 SF-CAS              85:       -10.9329236400    16.2196    30.0000
 SF-CAS              86:       -10.9307354945    16.2791    30.0000
 SF-CAS              87:       -10.9305643902    16.2838    30.0000
 SF-CAS              88:       -10.9283882834    16.3430    30.0000
 SF-CAS              89:       -10.9271845796    16.3758    30.0000
 SF-CAS              90:       -10.9265114784    16.3941    30.0000
 SF-CAS              91:       -10.9258801111    16.4113    30.0000
 SF-CAS              92:       -10.9244710447    16.4496    30.0000
 SF-CAS              93:       -10.9229950378    16.4898    30.0000
 SF-CAS              94:       -10.9223263214    16.5080    30.0000
 SF-CAS              95:       -10.9204325041    16.5595    30.0000
 SF-CAS              96:       -10.9186884192    16.6070    30.0000
 SF-CAS              97:       -10.9172776048    16.6453    30.0000
 SF-CAS              98:       -10.9170003071    16.6529    30.0000
 SF-CAS              99:       -10.9154242492    16.6958    30.0000
 SF-CAS             100:       -10.9151794926    16.7024    30.0000
 SF-CAS             101:       -10.9134893457    16.7484    30.0000
 SF-CAS             102:       -10.9131170590    16.7586    30.0000
 SF-CAS             103:       -10.9118031015    16.7943    30.0000
 SF-CAS             104:       -10.9110977857    16.8135    30.0000
 SF-CAS             105:       -10.9101004767    16.8406    30.0000
 SF-CAS             106:       -10.9095840540    16.8547    30.0000
 SF-CAS             107:       -10.9071935799    16.9197    30.0000
 SF-CAS             108:       -10.9051206307    16.9762    30.0000
 SF-CAS             109:       -10.9041475311    17.0026    30.0000
 SF-CAS             110:       -10.9030495295    17.0325    30.0000
 SF-CAS             111:       -10.9019317371    17.0629    30.0000
 SF-CAS             112:       -10.9014480392    17.0761    30.0000
 SF-CAS             113:       -10.8995345168    17.1282    30.0000
 SF-CAS             114:       -10.8960513771    17.2229    30.0000
 SF-CAS             115:       -10.8939966519    17.2789    30.0000
 SF-CAS             116:       -10.8927010487    17.3141    30.0000
 SF-CAS             117:       -10.8916657081    17.3423    30.0000
 SF-CAS             118:       -10.8828685737    17.5817    30.0000
 SF-CAS             119:       -10.8815493492    17.6176    30.0000
 SF-CAS             120:       -10.8811087783    17.6296    30.0000
 SF-CAS             121:       -10.8800135294    17.6594    30.0000
 SF-CAS             122:       -10.8789556597    17.6881    30.0000
 SF-CAS             123:       -10.8782709668    17.7068    30.0000
 SF-CAS             124:       -10.8767220274    17.7489    30.0000
 SF-CAS             125:       -10.8746386742    17.8056    30.0000
 SF-CAS             126:       -10.8728568501    17.8541    30.0000
 SF-CAS             127:       -10.7182573373    22.0610    30.0000
 SF-CAS             128:       -10.7142026190    22.1713    30.0000
 SF-CAS             129:       -10.7107635790    22.2649    30.0000
 SF-CAS             130:       -10.7034676821    22.4635    30.0000
 SF-CAS             131:       -10.7008353922    22.5351    30.0000
 SF-CAS             132:       -10.6979051148    22.6148    30.0000
 SF-CAS             133:       -10.6888655158    22.8608    30.0000
 SF-CAS             134:       -10.6886453603    22.8668    30.0000
 SF-CAS             135:       -10.6822025949    23.0421    30.0000
 SF-CAS             136:       -10.6799490976    23.1034    30.0000
 SF-CAS             137:       -10.6784300201    23.1448    30.0000
 SF-CAS             138:       -10.6764428994    23.1989    30.0000
 SF-CAS             139:       -10.6726159426    23.3030    30.0000
 SF-CAS             140:       -10.6707348254    23.3542    30.0000
 SF-CAS             141:       -10.6679390558    23.4303    30.0000
 SF-CAS             142:       -10.6603708856    23.6362    30.0000
 SF-CAS             143:       -10.6557705340    23.7614    30.0000
 SF-CAS             144:       -10.6539003831    23.8123    30.0000
 ===================================================================

              Active Space Coefficients > 0.20
 -------------------------------------------------------------------
 State  1                       Configuration         Coeff.   <S^2>
 -------------------------------------------------------------------
                  11111111111_ | ___________1      -0.542501  31.000
                  1111111111_1 | __________1_      -0.365385  31.000
                  1111_1111111 | ____1_______      -0.356696  31.000
                  11_111111111 | __1_________       0.229943  31.000
                  1_1111111111 | _1__________       0.273270  31.000
 -------------------------------------------------------------------
 State  2                       Configuration         Coeff.   <S^2>
 -------------------------------------------------------------------
                  11111111111_ | ___________1      -0.308728  31.000
                  11111_111111 | _____1______       0.218424  31.000
                  1111_1111111 | ____1_______       0.585577  31.000
                  _11111111111 | 1___________       0.406443  31.000
 -------------------------------------------------------------------
 State  3                       Configuration         Coeff.   <S^2>
 -------------------------------------------------------------------
                  11111111111_ | ___________1       0.282916  31.000
                  1111111111_1 | __________1_      -0.551511  31.000
                  111111111_11 | _________1__      -0.337664  31.000
                  11111_111111 | _____1______      -0.395782  31.000
                  11_111111111 | __1_________      -0.212412  31.000
 -------------------------------------------------------------------
 State  4                       Configuration         Coeff.   <S^2>
 -------------------------------------------------------------------
                  11111111111_ | ___________1       0.242666  31.000
                  11111111_111 | ________1___      -0.240172  31.000
                  1111_1111111 | ____1_______      -0.266457  31.000
                  11_111111111 | __1_________       0.304470  31.000
                  1_1111111111 | _1__________      -0.242269  31.000
                  _11111111111 | 1___________       0.595338  31.000
 -------------------------------------------------------------------
 State  5                       Configuration         Coeff.   <S^2>
 -------------------------------------------------------------------
                  1111111111_1 | __________1_      -0.222089  31.000
                  111111111_11 | _________1__       0.693647  31.000
                  1111111_1111 | _______1____      -0.358494  31.000
                  11111_111111 | _____1______      -0.214066  31.000
 -------------------------------------------------------------------
 State  6                       Configuration         Coeff.   <S^2>
 -------------------------------------------------------------------
                  11111111111_ | ___________1      -0.252244  31.000
                  1111111111_1 | __________1_       0.275519  31.000
                  11111111_111 | ________1___      -0.236107  31.000
                  11111_111111 | _____1______      -0.565765  31.000
                  1111_1111111 | ____1_______      -0.297088  31.000
                  111_11111111 | ___1________       0.294396  31.000
                  _11111111111 | 1___________       0.257743  31.000
 -------------------------------------------------------------------
 State  7                       Configuration         Coeff.   <S^2>
 -------------------------------------------------------------------
                  11111111_111 | ________1___      -0.642301  31.000
                  111_11111111 | ___1________      -0.639467  31.000
 -------------------------------------------------------------------
 State  8                       Configuration         Coeff.   <S^2>
 -------------------------------------------------------------------
                  1111111_1111 | _______1____       0.639622  31.000
                  1_1111111111 | _1__________      -0.613148  31.000
 -------------------------------------------------------------------
 State  9                       Configuration         Coeff.   <S^2>
 -------------------------------------------------------------------
                  111111_11111 | ______1_____      -0.707068  31.000
                  11_111111111 | __1_________       0.553125  31.000
 -------------------------------------------------------------------
 State  10                      Configuration         Coeff.   <S^2>
 -------------------------------------------------------------------
                  1111111111_1 | __________1_       0.370155  31.000
                  11111111_111 | ________1___       0.370255  31.000
                  111111_11111 | ______1_____      -0.332180  31.000
                  11111_111111 | _____1______       0.326516  31.000
                  1111_1111111 | ____1_______      -0.306903  31.000
                  111_11111111 | ___1________      -0.372712  31.000
                  11_111111111 | __1_________      -0.332271  31.000
                  _11111111111 | 1___________       0.386961  31.000
 -------------------------------------------------------------------
 State  11                      Configuration         Coeff.   <S^2>
 -------------------------------------------------------------------
                  11111111111_ | ___________1      -0.383441  31.000
                  111111111_11 | _________1__      -0.406050  31.000
                  1111111_1111 | _______1____      -0.412198  31.000
                  111111_11111 | ______1_____      -0.251973  31.000
                  11111_111111 | _____1______       0.238191  31.000
                  1111_1111111 | ____1_______      -0.240296  31.000
                  11_111111111 | __1_________      -0.252289  31.000
                  1_1111111111 | _1__________      -0.413889  31.000
 -------------------------------------------------------------------
 State  12                      Configuration         Coeff.   <S^2>
 -------------------------------------------------------------------
                  11111111111_ | ___________1       0.288675  31.000
                  1111111111_1 | __________1_      -0.288675  31.000
                  111111111_11 | _________1__       0.288675  31.000
                  11111111_111 | ________1___      -0.288675  31.000
                  1111111_1111 | _______1____       0.288675  31.000
                  111111_11111 | ______1_____      -0.288675  31.000
                  11111_111111 | _____1______       0.288675  31.000
                  1111_1111111 | ____1_______      -0.288675  31.000
                  111_11111111 | ___1________       0.288675  31.000
                  11_111111111 | __1_________      -0.288675  31.000
                  1_1111111111 | _1__________       0.288675  31.000
                  _11111111111 | 1___________      -0.288675  31.000
 -------------------------------------------------------------------
 State  13                      Configuration         Coeff.   <S^2>
 -------------------------------------------------------------------
                  1111_1111111 | __1_________       0.276415  30.000
                  1111_1111111 | ___1________       0.239180  30.000
                  1111_1111111 | _____1______       0.295677  30.000
                  1111_1111111 | ______1_____       0.282459  30.000
                  1111_1111111 | ________1___       0.241201  30.000
                  1111_1111111 | __________1_      -0.226737  30.000
                  _11111111111 | ___1________      -0.206883  30.000
                  _11111111111 | __________1_       0.250501  30.000
 -------------------------------------------------------------------
 State  14                      Configuration         Coeff.   <S^2>
 -------------------------------------------------------------------
                  11111111111_ | _1__________       0.262474  30.000
                  11111111111_ | _______1____      -0.257446  30.000
                  11111111111_ | _________1__      -0.282074  30.000
                  1111111111_1 | 1___________      -0.222587  30.000
                  1111111111_1 | ___1________      -0.211729  30.000
                  1111111111_1 | ________1___      -0.210623  30.000
 -------------------------------------------------------------------
 State  15                      Configuration         Coeff.   <S^2>
 -------------------------------------------------------------------
                  111111111_11 | _______1____      -0.224693  30.000
                  111111111_11 | ___________1      -0.243884  30.000
                  11111_111111 | ____1_______       0.245841  30.000
                  11_111111111 | ______1_____       0.242610  30.000
                  1_1111111111 | _______1____      -0.237519  30.000
                  1_1111111111 | ___________1      -0.240558  30.000
 -------------------------------------------------------------------
 State  16                      Configuration         Coeff.   <S^2>
 -------------------------------------------------------------------
                  111111111_11 | _1__________      -0.203229  30.000
                  111111111_11 | _______1____       0.246316  30.000
                  111111111_11 | ___________1       0.309821  30.000
                  1_1111111111 | _______1____       0.247071  30.000
                  1_1111111111 | ___________1       0.215191  30.000
                  _11111111111 | ___1________      -0.258831  30.000
                  _11111111111 | ________1___      -0.248263  30.000
                  _11111111111 | __________1_       0.228809  30.000
 -------------------------------------------------------------------
 State  17                      Configuration         Coeff.   <S^2>
 -------------------------------------------------------------------
                  111111_11111 | __1_________       0.310742  30.000
                  111111_11111 | ____1_______       0.423019  30.000
                  111111_11111 | _____1______       0.412976  30.000
                  111111_11111 | ______1_____      -0.256834  31.000
                  11_111111111 | ____1_______      -0.361059  30.000
                  11_111111111 | _____1______      -0.337867  30.000
 -------------------------------------------------------------------
 State  18                      Configuration         Coeff.   <S^2>
 -------------------------------------------------------------------
                  11111111111_ | _______1____       0.317270  30.000
                  1111111111_1 | 1___________      -0.216425  30.000
                  1111111111_1 | ___1________      -0.203739  30.000
                  111111111_11 | _1__________       0.298107  30.000
                  1111111_1111 | ___________1       0.331813  30.000
                  1_1111111111 | _________1__       0.328510  30.000
 -------------------------------------------------------------------
 State  19                      Configuration         Coeff.   <S^2>
 -------------------------------------------------------------------
                  1111111111_1 | 1___________      -0.262838  30.000
                  11111111_111 | ___1________      -0.226604  30.000
                  1111111_1111 | _1__________       0.203629  30.000
                  1111111_1111 | ___________1      -0.220221  30.000
                  11111_111111 | __1_________       0.237811  30.000
                  11111_111111 | ______1_____       0.234028  30.000
                  1111_1111111 | __1_________       0.221173  30.000
                  1111_1111111 | ______1_____       0.225344  30.000
                  111_11111111 | ________1___       0.222287  30.000
 -------------------------------------------------------------------
 State  20                      Configuration         Coeff.   <S^2>
 -------------------------------------------------------------------
                  11111111111_ | _1__________       0.310620  30.000
                  11111111111_ | _________1__      -0.216524  30.000
                  111111111_11 | _______1____       0.217762  30.000
                  1111111_1111 | _1__________      -0.242427  30.000
                  1111111_1111 | _________1__       0.339454  30.000
                  1111111_1111 | ___________1       0.227475  30.000
                  11111_111111 | __1_________       0.219209  30.000
                  11111_111111 | ____1_______       0.262840  30.000
                  11111_111111 | ______1_____       0.211188  30.000
                  1_1111111111 | ___________1       0.268924  30.000
 -------------------------------------------------------------------
 State  21                      Configuration         Coeff.   <S^2>
 -------------------------------------------------------------------
                  11111111_111 | 1___________      -0.385219  30.000
                  11111111_111 | ___1________      -0.256957  30.000
                  11111111_111 | ________1___       0.230685  31.000
                  11111111_111 | __________1_       0.399861  30.000
                  111_11111111 | 1___________      -0.392126  30.000
                  111_11111111 | ___1________       0.242457  31.000
                  111_11111111 | ________1___      -0.282980  30.000
                  111_11111111 | __________1_       0.416687  30.000
 -------------------------------------------------------------------
 State  22                      Configuration         Coeff.   <S^2>
 -------------------------------------------------------------------
                  11111111111_ | ____1_______       0.246240  30.000
                  11111111111_ | _____1______       0.243689  30.000
                  1111_1111111 | ___1________       0.226749  30.000
                  1111_1111111 | ________1___       0.229896  30.000
                  1111_1111111 | __________1_      -0.218094  30.000
 -------------------------------------------------------------------
 State  23                      Configuration         Coeff.   <S^2>
 -------------------------------------------------------------------
                  11111111111_ | ____1_______      -0.203532  30.000
                  11111111111_ | _____1______      -0.214459  30.000
                  1111_1111111 | 1___________       0.203984  30.000
                  1111_1111111 | ___1________       0.248904  30.000
                  1111_1111111 | ________1___       0.253973  30.000
                  1111_1111111 | __________1_      -0.243694  30.000
 -------------------------------------------------------------------
 State  24                      Configuration         Coeff.   <S^2>
 -------------------------------------------------------------------
                  11111111111_ | __________1_       0.213910  30.000
                  1111111111_1 | ___________1      -0.206418  30.000
                  11111_111111 | _1__________       0.212036  30.000
                  11111_111111 | _______1____      -0.244486  30.000
                  11111_111111 | _________1__      -0.214674  30.000
                  11111_111111 | ___________1      -0.293677  30.000
                  1111_1111111 | ___________1      -0.245871  30.000
 -------------------------------------------------------------------
 State  25                      Configuration         Coeff.   <S^2>
 -------------------------------------------------------------------
                  1111111111_1 | _1__________      -0.235789  30.000
                  1111111111_1 | _______1____       0.242846  30.000
                  1111111111_1 | _________1__       0.291715  30.000
                  1111111111_1 | ___________1       0.323804  30.000
                  11111_111111 | ___________1      -0.262964  30.000
 -------------------------------------------------------------------
 State  26                      Configuration         Coeff.   <S^2>
 -------------------------------------------------------------------
                  11111111_111 | __1_________       0.288954  30.000
                  11111111_111 | ____1_______       0.426431  30.000
                  11111111_111 | _____1______       0.300489  30.000
                  11111111_111 | ______1_____       0.302329  30.000
                  111_11111111 | __1_________       0.278552  30.000
                  111_11111111 | ____1_______       0.388599  30.000
                  111_11111111 | _____1______       0.283099  30.000
                  111_11111111 | ______1_____       0.268530  30.000
 -------------------------------------------------------------------
 State  27                      Configuration         Coeff.   <S^2>
 -------------------------------------------------------------------
                  11111111111_ | 1___________       0.207435  30.000
                  11111111111_ | ___1________       0.220091  30.000
                  11111111111_ | ________1___       0.229387  30.000
                  11111111111_ | __________1_      -0.293495  30.000
                  111111111_11 | __________1_       0.254342  30.000
                  11111_111111 | ___________1      -0.217700  30.000
                  1111_1111111 | ________1___       0.200297  30.000
 -------------------------------------------------------------------
 State  28                      Configuration         Coeff.   <S^2>
 -------------------------------------------------------------------
                  1111_1111111 | ___________1      -0.249848  30.000
 -------------------------------------------------------------------
 State  29                      Configuration         Coeff.   <S^2>
 -------------------------------------------------------------------
                  1111111111_1 | ____1_______       0.218913  30.000
 -------------------------------------------------------------------
 State  30                      Configuration         Coeff.   <S^2>
 -------------------------------------------------------------------
                  111111111_11 | 1___________      -0.240200  30.000
                  111111111_11 | ___1________      -0.252013  30.000
                  111111111_11 | ________1___      -0.251569  30.000
                  111111111_11 | __________1_       0.343497  30.000
                  1111111_1111 | ___1________       0.213863  30.000
                  1111111_1111 | ________1___       0.211694  30.000
                  1111111_1111 | __________1_      -0.253051  30.000
 -------------------------------------------------------------------
 State  31                      Configuration         Coeff.   <S^2>
 -------------------------------------------------------------------
                  1111111_1111 | __1_________      -0.285241  30.000
                  1111111_1111 | ____1_______      -0.326156  30.000
                  1111111_1111 | _____1______      -0.366465  30.000
                  1111111_1111 | ______1_____      -0.286884  30.000
                  1_1111111111 | __1_________      -0.222123  30.000
                  1_1111111111 | ____1_______      -0.287351  30.000
                  1_1111111111 | _____1______      -0.272649  30.000
                  1_1111111111 | ______1_____      -0.232954  30.000
 -------------------------------------------------------------------
 State  32                      Configuration         Coeff.   <S^2>
 -------------------------------------------------------------------
                  111111_11111 | 1___________      -0.230124  30.000
                  111111_11111 | ___1________      -0.267443  30.000
                  111111_11111 | ________1___      -0.282018  30.000
                  111111_11111 | __________1_       0.279393  30.000
                  11_111111111 | 1___________       0.201801  30.000
                  11_111111111 | ___1________       0.243423  30.000
                  11_111111111 | ________1___       0.239622  30.000
                  11_111111111 | __________1_      -0.247018  30.000
 -------------------------------------------------------------------
 State  33                      Configuration         Coeff.   <S^2>
 -------------------------------------------------------------------
                  11111111_111 | _1__________       0.236908  30.000
                  11111111_111 | _______1____      -0.240064  30.000
                  11111111_111 | _________1__      -0.263318  30.000
                  11111111_111 | ___________1      -0.295142  30.000
                  111_11111111 | _1__________       0.202051  30.000
                  111_11111111 | _______1____      -0.210707  30.000
                  111_11111111 | _________1__      -0.232948  30.000
                  111_11111111 | ___________1      -0.236684  30.000
 -------------------------------------------------------------------
 State  34                      Configuration         Coeff.   <S^2>
 -------------------------------------------------------------------
                  111_11111111 | ___________1       0.220694  30.000
                  _11111111111 | __1_________      -0.250983  30.000
                  _11111111111 | ____1_______      -0.301053  30.000
                  _11111111111 | _____1______      -0.261936  30.000
                  _11111111111 | ______1_____      -0.252092  30.000
 -------------------------------------------------------------------
 State  35                      Configuration         Coeff.   <S^2>
 -------------------------------------------------------------------
                  11111_111111 | 1___________      -0.250217  30.000
                  11111_111111 | ___1________      -0.296965  30.000
                  11111_111111 | ________1___      -0.294943  30.000
                  11111_111111 | __________1_       0.282577  30.000
 -------------------------------------------------------------------
 State  36                      Configuration         Coeff.   <S^2>
 -------------------------------------------------------------------
                  111111_11111 | _1__________       0.290643  30.000
                  111111_11111 | _______1____      -0.301696  30.000
                  111111_11111 | _________1__      -0.275034  30.000
                  111111_11111 | ___________1      -0.336516  30.000
                  11_111111111 | _1__________      -0.289728  30.000
                  11_111111111 | _______1____       0.312458  30.000
                  11_111111111 | _________1__       0.279782  30.000
                  11_111111111 | ___________1       0.327037  30.000
 -------------------------------------------------------------------
 State  37                      Configuration         Coeff.   <S^2>
 -------------------------------------------------------------------
                  111111111_11 | _____1______      -0.215749  30.000
                  1111111_1111 | 1___________       0.208977  30.000
                  1111111_1111 | ___1________       0.213410  30.000
                  1111111_1111 | ________1___       0.208484  30.000
                  1111111_1111 | __________1_      -0.249018  30.000
                  1_1111111111 | __________1_      -0.202421  30.000
 -------------------------------------------------------------------
 State  38                      Configuration         Coeff.   <S^2>
 -------------------------------------------------------------------
                  1_1111111111 | __________1_      -0.226765  30.000
                  _11111111111 | _1__________       0.234145  30.000
                  _11111111111 | _______1____      -0.236559  30.000
                  _11111111111 | _________1__      -0.271294  30.000
                  _11111111111 | ___________1      -0.268718  30.000
 -------------------------------------------------------------------
 State  39                      Configuration         Coeff.   <S^2>
 -------------------------------------------------------------------
                  111111111_11 | _____1______      -0.202020  30.000
                  1_1111111111 | __1_________      -0.200728  30.000
                  1_1111111111 | _____1______      -0.246824  30.000
                  1_1111111111 | ______1_____      -0.211268  30.000
                  _11111111111 | ____1_______      -0.206928  30.000
                  _11111111111 | _________1__      -0.203809  30.000
 -------------------------------------------------------------------
 State  40                      Configuration         Coeff.   <S^2>
 -------------------------------------------------------------------
                  11111111111_ | _______1____       0.338937  30.000
                  11111111111_ | _________1__      -0.446815  30.000
                  111111111_11 | ___________1      -0.217154  30.000
                  1111111_1111 | _1__________       0.283765  30.000
                  1_1111111111 | _______1____       0.372500  30.000
                  1_1111111111 | _________1__      -0.299054  30.000
 -------------------------------------------------------------------
 State  41                      Configuration         Coeff.   <S^2>
 -------------------------------------------------------------------
                  1111111111_1 | 1___________      -0.478391  30.000
                  1111111111_1 | ___1________       0.223180  30.000
                  1111111111_1 | ________1___       0.292182  30.000
                  11111111_111 | 1___________      -0.242320  30.000
                  11111111_111 | ___1________       0.345210  30.000
                  111_11111111 | 1___________       0.271931  30.000
                  111_11111111 | ________1___      -0.340076  30.000
 -------------------------------------------------------------------
 State  42                      Configuration         Coeff.   <S^2>
 -------------------------------------------------------------------
                  11111111111_ | _1__________      -0.353369  30.000
                  111111111_11 | _______1____       0.288825  30.000
                  1111111_1111 | _________1__       0.267678  30.000
                  111111_11111 | __1_________      -0.247360  30.000
                  1111_1111111 | _____1______      -0.365572  30.000
                  1111_1111111 | ______1_____       0.213187  30.000
                  11_111111111 | _____1______       0.208427  30.000
                  11_111111111 | ______1_____      -0.267635  30.000
 -------------------------------------------------------------------
 State  43                      Configuration         Coeff.   <S^2>
 -------------------------------------------------------------------
                  1111111111_1 | ___1________      -0.468414  30.000
                  1111111111_1 | ________1___       0.426848  30.000
                  11111111_111 | 1___________       0.289775  30.000
                  11111111_111 | __________1_       0.210614  30.000
                  111_11111111 | 1___________       0.251138  30.000
                  111_11111111 | __________1_       0.205071  30.000
                  _11111111111 | ___1________      -0.380739  30.000
                  _11111111111 | ________1___       0.375182  30.000
 -------------------------------------------------------------------
 State  44                      Configuration         Coeff.   <S^2>
 -------------------------------------------------------------------
                  11111111111_ | _1__________      -0.389040  30.000
                  11111111111_ | _______1____      -0.413589  30.000
                  111111111_11 | _1__________       0.351018  30.000
                  111111111_11 | _______1____       0.292873  30.000
                  1111111_1111 | _________1__       0.210873  30.000
                  111111_11111 | __1_________       0.206790  30.000
                  1111_1111111 | _____1______       0.268709  30.000
                  1_1111111111 | _________1__       0.252193  30.000
 -------------------------------------------------------------------
 State  45                      Configuration         Coeff.   <S^2>
 -------------------------------------------------------------------
                  111111_11111 | _____1______      -0.245574  30.000
                  11111_111111 | __1_________      -0.379984  30.000
                  11111_111111 | ______1_____       0.360837  30.000
                  1111_1111111 | __1_________      -0.468207  30.000
                  1111_1111111 | ______1_____       0.484748  30.000
                  11_111111111 | _____1______       0.262147  30.000
 -------------------------------------------------------------------
 State  46                      Configuration         Coeff.   <S^2>
 -------------------------------------------------------------------
                  11111111111_ | _________1__       0.246379  30.000
                  111111111_11 | _1__________      -0.224254  30.000
                  111111111_11 | ___________1      -0.389501  30.000
                  11111111_111 | ___1________      -0.241177  30.000
                  11111111_111 | __________1_      -0.232005  30.000
                  1111111_1111 | ___________1       0.240474  30.000
                  _11111111111 | ___1________       0.316524  30.000
                  _11111111111 | __________1_       0.259296  30.000
 -------------------------------------------------------------------
 State  47                      Configuration         Coeff.   <S^2>
 -------------------------------------------------------------------
                  11111111_111 | 1___________       0.378212  30.000
                  11111111_111 | ___1________      -0.330725  30.000
                  111_11111111 | 1___________       0.361815  30.000
                  111_11111111 | ________1___      -0.371153  30.000
                  _11111111111 | ___1________       0.294997  30.000
                  _11111111111 | ________1___      -0.394582  30.000
[...]
   697     3281.41183871    31395.45016391        2.00000000      cm-1
   698     3293.88756292    31407.92588813        6.00000000      cm-1
   699     3297.49176323    31411.53008844       12.00000000      cm-1
   700     3301.78278262    31415.82110782        6.00000000      cm-1
   701     3309.21020545    31423.24853065       12.00000000      cm-1
   702     3317.58970604    31431.62803124        2.00000000      cm-1
   703     3320.40705618    31434.44538138        6.00000000      cm-1
   704     3322.38649135    31436.42481656       12.00000000      cm-1
   705     3324.29741025    31438.33573546        6.00000000      cm-1
   706     3327.79449838    31441.83282359       20.00000000      cm-1
   707     3337.02821080    31451.06653601       12.00000000      cm-1
   708     3337.25372084    31451.29204605        6.00000000      cm-1
   709     3343.31336574    31457.35169094       12.00000000      cm-1
   710     3347.75849922    31461.79682443       20.00000000      cm-1
   711     3353.23541078    31467.27373598        6.00000000      cm-1
   712     3355.21193961    31469.25026481       12.00000000      cm-1
   713     3357.33052678    31471.36885199        6.00000000      cm-1
   714     3358.58134796    31472.61967316       12.00000000      cm-1
   715     3361.32737964    31475.36570485        2.00000000      cm-1
   716     3369.98373138    31484.02205658       12.00000000      cm-1
   717     3374.36973113    31488.40805633        6.00000000      cm-1
   718     3383.90133039    31497.93965559        0.00000000      cm-1
   719     3385.33465063    31499.37297584       20.00000000      cm-1
   720     3389.90226992    31503.94059513        2.00000000      cm-1
   721     3391.27580680    31505.31413200        6.00000000      cm-1
   722     3394.78272549    31508.82105070        2.00000000      cm-1
   723     3403.71028333    31517.74860853        2.00000000      cm-1
   724     3405.03459662    31519.07292182        0.00000000      cm-1
   725     3408.02681233    31522.06513753       12.00000000      cm-1
   726     3408.03002183    31522.06834704        6.00000000      cm-1
   727     3415.57825763    31529.61658283       12.00000000      cm-1
   728     3415.66052825    31529.69885345       20.00000000      cm-1
   729     3419.32707792    31533.36540313        0.00000000      cm-1
   730     3420.43665483    31534.47498004        6.00000000      cm-1
   731     3429.89424588    31543.93257108        2.00000000      cm-1
   732     3442.98770384    31557.02602904        6.00000000      cm-1
   733     3445.52574488    31559.56407008       20.00000000      cm-1
   734     3448.85939503    31562.89772023       12.00000000      cm-1
   735     3453.29856874    31567.33689394        6.00000000      cm-1
   736     3457.41435388    31571.45267908       12.00000000      cm-1
   737     3462.14158346    31576.17990866       20.00000000      cm-1
   738     3464.07793357    31578.11625877        6.00000000      cm-1
   739     3467.42901946    31581.46734466       12.00000000      cm-1
   740     3468.42776794    31582.46609314        6.00000000      cm-1
   741     3477.49700813    31591.53533333       12.00000000      cm-1
   742     3478.69948025    31592.73780546       20.00000000      cm-1
   743     3487.24190055    31601.28022575       20.00000000      cm-1
   744     3498.28096943    31612.31929464       20.00000000      cm-1
   745     3499.38217467    31613.42049987        6.00000000      cm-1
   746     3508.26761334    31622.30593854       12.00000000      cm-1
   747     3514.63681215    31628.67513736       20.00000000      cm-1
   748     3519.70086236    31633.73918756       12.00000000      cm-1
   749     3556.41820280    31670.45652801       20.00000000      cm-1
   750     3584.11852286    31698.15684807       20.00000000      cm-1
   751     3592.97219220    31707.01051740       20.00000000      cm-1
   752     3602.53326255    31716.57158776       12.00000000      cm-1
   753     3603.49882382    31717.53714902       20.00000000      cm-1
   754     3605.36866675    31719.40699195        6.00000000      cm-1
   755     3641.91906769    31755.95739289       20.00000000      cm-1
   756     3673.99761348    31788.03593869       20.00000000      cm-1
   757     3681.28524109    31795.32356629       20.00000000      cm-1
   758     8672.17668419    36786.21500939        0.00000000      cm-1
   759     8713.88416775    36827.92249295        0.00000000      cm-1
   760     8732.99864689    36847.03697209        2.00000000      cm-1
   761     8769.15093521    36883.18926042        2.00000000      cm-1
   762     8797.76784319    36911.80616839        0.00000000      cm-1
   763     8852.98776405    36967.02608926        6.00000000      cm-1
   764     8855.90508591    36969.94341111        2.00000000      cm-1
   765     8878.17126221    36992.20958741        6.00000000      cm-1
   766     8970.74951838    37084.78784358        6.00000000      cm-1
   767     8992.71118546    37106.74951066        0.00000000      cm-1
   768     9015.72075116    37129.75907637       -0.00000000      cm-1
   769     9029.03759693    37143.07592213       12.00000000      cm-1
   770     9038.11784789    37152.15617309       12.00000000      cm-1
   771     9048.32111266    37162.35943787        2.00000000      cm-1
   772     9059.16557107    37173.20389627        0.00000000      cm-1
   773     9077.77399967    37191.81232488        2.00000000      cm-1
   774     9117.19974252    37231.23806772        2.00000000      cm-1
   775     9139.60134595    37253.63967116       12.00000000      cm-1
   776     9158.21807034    37272.25639554        6.00000000      cm-1
   777     9200.22915477    37314.26747997        6.00000000      cm-1
   778     9231.75291354    37345.79123874        6.00000000      cm-1
   779     9245.13401891    37359.17234411       20.00000000      cm-1
   780     9256.99340550    37371.03173070       20.00000000      cm-1
   781     9319.90404482    37433.94237002       12.00000000      cm-1
   782     9358.77261480    37472.81094000       20.00000000      cm-1
   783     9379.98800865    37494.02633385       12.00000000      cm-1
   784     9399.97855839    37514.01688360       12.00000000      cm-1
   785     9529.96542965    37644.00375485       20.00000000      cm-1
   786     9612.85745460    37726.89577980       20.00000000      cm-1
   787     9618.01713251    37732.05545771       20.00000000      cm-1
   788    14589.54297744    42703.58130265        2.00000000      cm-1
   789    14683.56438518    42797.60271038        2.00000000      cm-1
   790    14689.63499759    42803.67332279        2.00000000      cm-1
   791    14709.82614229    42823.86446749        6.00000000      cm-1
   792    14720.66254099    42834.70086620        0.00000000      cm-1
   793    14758.24349585    42872.28182105        2.00000000      cm-1
   794    14765.46593735    42879.50426255       -0.00000000      cm-1
   795    14784.04238401    42898.08070922        6.00000000      cm-1
   796    14816.13085724    42930.16918244        6.00000000      cm-1
   797    14817.74072632    42931.77905153        2.00000000      cm-1
   798    14831.52359456    42945.56191976        2.00000000      cm-1
   799    14838.67355404    42952.71187924       -0.00000000      cm-1
   800    14852.46531127    42966.50363647        0.00000000      cm-1
   801    14856.02641580    42970.06474101        6.00000000      cm-1
   802    14863.38790422    42977.42622943        2.00000000      cm-1
   803    14878.75928324    42992.79760844       12.00000000      cm-1
   804    14878.81281889    42992.85114410        2.00000000      cm-1
   805    14903.78520532    43017.82353052        0.00000000      cm-1
   806    14905.53743630    43019.57576150        6.00000000      cm-1
   807    14906.83742443    43020.87574963        2.00000000      cm-1
   808    14921.90013675    43035.93846196        6.00000000      cm-1
   809    14922.25581545    43036.29414065        2.00000000      cm-1
   810    14925.31902999    43039.35735519       12.00000000      cm-1
   811    14936.95571597    43050.99404117        2.00000000      cm-1
   812    14944.09628778    43058.13461298        2.00000000      cm-1
   813    14959.17172262    43073.21004783        6.00000000      cm-1
   814    14980.86583214    43094.90415735        2.00000000      cm-1
   815    14987.64842687    43101.68675208        2.00000000      cm-1
   816    14995.16164782    43109.19997303        6.00000000      cm-1
   817    14995.34977053    43109.38809574        2.00000000      cm-1
   818    14998.54385863    43112.58218384        6.00000000      cm-1
   819    14999.32152298    43113.35984819        2.00000000      cm-1
   820    15002.50974234    43116.54806754       12.00000000      cm-1
   821    15021.61725274    43135.65557794       12.00000000      cm-1
   822    15032.82584838    43146.86417359       12.00000000      cm-1
   823    15036.54610058    43150.58442578        2.00000000      cm-1
   824    15049.12306338    43163.16138858       12.00000000      cm-1
   825    15049.95207757    43163.99040278        6.00000000      cm-1
   826    15061.18605339    43175.22437860        6.00000000      cm-1
   827    15069.83827466    43183.87659986        6.00000000      cm-1
   828    15071.92691535    43185.96524055        0.00000000      cm-1
   829    15096.20465101    43210.24297621        6.00000000      cm-1
   830    15117.81005303    43231.84837824       12.00000000      cm-1
   831    15126.93161657    43240.96994178        6.00000000      cm-1
   832    15127.17952999    43241.21785519        2.00000000      cm-1
   833    15130.12002602    43244.15835122        6.00000000      cm-1
   834    15136.34970815    43250.38803336       20.00000000      cm-1
   835    15140.24789532    43254.28622053        6.00000000      cm-1
   836    15144.57416430    43258.61248950       12.00000000      cm-1
   837    15168.41799182    43282.45631702       12.00000000      cm-1
   838    15182.14108982    43296.17941502       -0.00000000      cm-1
   839    15194.97109439    43309.00941959        2.00000000      cm-1
   840    15200.82924388    43314.86756908        6.00000000      cm-1
   841    15202.41799295    43316.45631815       20.00000000      cm-1
   842    15213.96490293    43328.00322813        0.00000000      cm-1
   843    15218.29983098    43332.33815618       12.00000000      cm-1
   844    15232.19601631    43346.23434152        2.00000000      cm-1
   845    15246.62417514    43360.66250035       12.00000000      cm-1
   846    15249.06916915    43363.10749435        6.00000000      cm-1
   847    15250.73999014    43364.77831534        2.00000000      cm-1
   848    15257.97551945    43372.01384465        2.00000000      cm-1
   849    15259.37083920    43373.40916441        0.00000000      cm-1
   850    15259.80344563    43373.84177083       12.00000000      cm-1
   851    15267.60552839    43381.64385359        6.00000000      cm-1
   852    15279.66505844    43393.70338364       12.00000000      cm-1
   853    15305.65263222    43419.69095742       20.00000000      cm-1
   854    15306.72540018    43420.76372538        6.00000000      cm-1
   855    15316.90528673    43430.94361193       12.00000000      cm-1
   856    15318.04718971    43432.08551491        2.00000000      cm-1
   857    15333.21648815    43447.25481335       12.00000000      cm-1
   858    15344.66753788    43458.70586308       12.00000000      cm-1
   859    15345.19856754    43459.23689275       20.00000000      cm-1
   860    15350.27308636    43464.31141156        6.00000000      cm-1
   861    15359.54358324    43473.58190844        2.00000000      cm-1
   862    15366.04713669    43480.08546189       30.00000000      cm-1
   863    15374.13011592    43488.16844112        6.00000000      cm-1
   864    15379.46459884    43493.50292405        2.00000000      cm-1
   865    15407.06282831    43521.10115352       12.00000000      cm-1
   866    15412.65064022    43526.68896542        2.00000000      cm-1
   867    15418.83589789    43532.87422310       12.00000000      cm-1
   868    15434.59909467    43548.63741987       12.00000000      cm-1
   869    15441.34814660    43555.38647181        6.00000000      cm-1
   870    15442.63873096    43556.67705616       12.00000000      cm-1
   871    15444.73134723    43558.76967244       20.00000000      cm-1
   872    15466.47624826    43580.51457346        2.00000000      cm-1
   873    15472.82245764    43586.86078284       20.00000000      cm-1
   874    15482.32774642    43596.36607162        6.00000000      cm-1
   875    15491.86064136    43605.89896656       20.00000000      cm-1
   876    15509.72008765    43623.75841285       12.00000000      cm-1
   877    15522.74467740    43636.78300260       20.00000000      cm-1
   878    15535.13671789    43649.17504309        6.00000000      cm-1
   879    15551.13277473    43665.17109993        6.00000000      cm-1
   880    15556.85387211    43670.89219732        6.00000000      cm-1
   881    15559.19833298    43673.23665818       12.00000000      cm-1
   882    15572.85294491    43686.89127012       30.00000000      cm-1
   883    15573.47674450    43687.51506970       20.00000000      cm-1
   884    15590.69388290    43704.73220810       20.00000000      cm-1
   885    15591.01065783    43705.04898303       12.00000000      cm-1
   886    15605.47580940    43719.51413460       12.00000000      cm-1
   887    15606.38289702    43720.42122222       20.00000000      cm-1
   888    15615.78189407    43729.82021928       20.00000000      cm-1
   889    15672.41574279    43786.45406800       20.00000000      cm-1
   890    15680.40060589    43794.43893109       12.00000000      cm-1
   891    15686.57346182    43800.61178702       20.00000000      cm-1
   892    15697.57576439    43811.61408959       20.00000000      cm-1
   893    15708.58727164    43822.62559685       30.00000000      cm-1
   894    15738.76754206    43852.80586726       12.00000000      cm-1
   895    15752.10530053    43866.14362573       20.00000000      cm-1
   896    15786.15735044    43900.19567565       12.00000000      cm-1
   897    15812.99671946    43927.03504466       20.00000000      cm-1
   898    15827.95877630    43941.99710151       20.00000000      cm-1
   899    15867.07716464    43981.11548984       30.00000000      cm-1
   900    15912.60411574    44026.64244094       30.00000000      cm-1
   901    15922.52280012    44036.56112532       30.00000000      cm-1
   902    15977.32743520    44091.36576041       30.00000000      cm-1
   903    15997.92180388    44111.96012908       30.00000000      cm-1
   904    16012.72754545    44126.76587065       30.00000000      cm-1
   905    27158.63298423    55272.67130943       -0.00000000      cm-1
   906    27198.52371775    55312.56204295        2.00000000      cm-1
   907    27213.19112146    55327.22944667        2.00000000      cm-1
   908    27229.94206784    55343.98039305        2.00000000      cm-1
   909    27295.42738284    55409.46570804        6.00000000      cm-1
   910    27304.61177378    55418.65009898        6.00000000      cm-1
   911    27322.18376608    55436.22209128        6.00000000      cm-1
   912    27341.38078192    55455.41910713        6.00000000      cm-1
   913    27354.77499836    55468.81332356        6.00000000      cm-1
   914    27468.04058405    55582.07890925       12.00000000      cm-1
   915    27484.90707021    55598.94539541       12.00000000      cm-1
   916    27506.95271346    55620.99103866       12.00000000      cm-1
   917    27525.28274343    55639.32106863       12.00000000      cm-1
   918    27700.72853104    55814.76685624       20.00000000      cm-1
   919    27724.39478338    55838.43310859       20.00000000      cm-1
   920    27747.80936422    55861.84768943       20.00000000      cm-1
   921    27991.12437810    56105.16270331       30.00000000      cm-1
   922    28019.05928120    56133.09760640       30.00000000      cm-1
   923    28335.40741108    56449.44573629       42.00000000      cm-1
 Analysis of SCF Wavefunction

 --------------------------------------------------------------

                    Orbital Energies (a.u.)
 --------------------------------------------------------------

 Alpha MOs
 -- Occupied --
 -0.914  -0.914  -0.516  -0.516  -0.515  -0.516  -0.515  -0.517
 -0.516  -0.518  -0.515  -0.517  -0.517  -0.516
 -- Virtual --
  1.078   1.171   1.091   0.952   1.083   0.942   1.344   0.952
  0.996   1.031   0.812   0.995   0.950   1.032

 Beta MOs
 -- Occupied --
 -0.914  -0.914
 -- Virtual --
  0.148   0.147   0.148   0.147   0.149   0.149   0.147   0.149
  0.148   0.148   0.150   0.147   1.200   1.261   1.249   1.118
  1.201   1.108   1.365   1.118   1.164   1.202   0.996   1.168
  1.120   1.202
 --------------------------------------------------------------

          Ground-State Mulliken Net Atomic Charges

     Atom                 Charge (a.u.)
  ----------------------------------------
      1 H                     0.000065
      2 H                     0.000033
      3 H                    -0.000018
      4 H                     0.000002
      5 H                    -0.000034
      6 H                     0.000028
      7 H                     0.000029
      8 H                    -0.000036
      9 H                     0.000071
     10 H                     0.000022
     11 H                    -0.000082
     12 H                    -0.000080
     13 He                    0.000000
     14 He                   -0.000000
  ----------------------------------------
  Sum of atomic charges =    -0.000000

 -----------------------------------------------------------------
                    Cartesian Multipole Moments
 -----------------------------------------------------------------
    Charge (ESU x 10^10)
                -0.0000
    Dipole Moment (Debye)
         X      -0.0001      Y      -0.0005      Z       0.0004
       Tot       0.0006
    Quadrupole Moments (Debye-Ang)
        XX     -19.6513     XY       0.0174     YY     -19.5918
        XZ      -0.0006     YZ      -0.0207     ZZ     -19.5111
    Octopole Moments (Debye-Ang^2)
       XXX     -19.5326    XXY     -33.3543    XYY      -4.8542
       YYY    -103.1145    XXZ     -22.8999    XYZ      -0.0151
       YYZ     -23.8531    XZZ      -4.1088    YZZ     -33.3304
       ZZZ     -70.7099
    Hexadecapole Moments (Debye-Ang^3)
      XXXX   -1642.9237   XXXY     -10.1011   XXYY    -558.8954
      XYYY      -8.8968   YYYY   -1697.6267   XXXZ       3.4316
      XXYZ    -214.0082   XYYZ       0.0828   YYYZ    -650.5515
      XXZZ    -491.0247   XYZZ      -2.8334   YYZZ    -508.6244
      XZZZ       4.4631   YZZZ    -645.7515   ZZZZ   -1318.2285
 -----------------------------------------------------------------
 JobOver = TRUE
Archival summary:
1\1\sinatra\SP\ROProcedureUnspecified\6-31G*\e212()\nmayhall\MonMar2016:11:012017MonMar2016:11:012017\0\\#,ROProcedureUnspecified,6-31G*,\\0,13\H\H,1,1.81065\H,1,1.81086,2,60.0452\H,2,1.81131,1,60.0237,3,-70.5123,0\H,1,2.82138,2,131.869,3,-31.317,0\H,5,1.81039,1,165.238,2,-117.033,0\H,5,1.81121,1,118.465,2,162.897,0\H,7,1.8112,5,60.0005,1,92.5879,0\H,8,2.837,7,73.0863,5,-92.9521,0\H,9,1.8108,8,152.386,7,-68.5028,0\H,10,1.8111,9,60.0291,8,178.05,0\H,11,1.81133,10,60.0389,9,70.5227,0\He,2,14.508,1,125.104,3,67.472,0\He,2,14.7384,1,125.228,3,-178.985,0\\HF=-11.469884\\@

 Total job time:  0.53s(wall), 0.53s(cpu) 
 Mon Mar 20 16:11:01 2017

        *************************************************************
        *                                                           *
        *  Thank you very much for using Q-Chem.  Have a nice day.  *
        *                                                           *
        *************************************************************


*** MISSION COMPLETED -- STARFLEET OUT ***

