                  Welcome to Q-Chem
     A Quantum Leap Into The Future Of Chemistry


 Q-Chem 4.3, Q-Chem, Inc., Pleasanton, CA (2015)

 Y. Shao,  Z. Gan,  E. Epifanovsky,  A. T. B. Gilbert,  M. Wormit,  
 J. Kussmann,  A. W. Lange,  A. Behn,  J. Deng,  X. Feng,  D. Ghosh,  
 M. Goldey,  P. R. Horn,  L. D. Jacobson,  I. Kaliman,  R. Z. Khaliullin,  
 T. Kus,  A. Landau,  J. Liu,  E. I. Proynov,  Y. M. Rhee,  R. M. Richard,  
 M. A. Rohrdanz,  R. P. Steele,  E. J. Sundstrom,  H. L. Woodcock III,  
 P. M. Zimmerman,  D. Zuev,  B. Albrecht,  E. Alguire,  B. Austin,  
 S. A. Baeppler,  G. J. O. Beran,  Y. A. Bernard,  E. Berquist,  
 K. Brandhorst,  K. B. Bravaya,  S. T. Brown,  D. Casanova,  C.-M. Chang,  
 Y. Chen,  S. H. Chien,  K. D. Closser,  D. L. Crittenden,  M. Diedenhofen,  
 R. A. DiStasio Jr.,  H. Do,  A. D. Dutoi,  R. G. Edgar,  P.-T. Fang,  
 S. Fatehi,  Q. Feng,  L. Fusti-Molnar,  A. Ghysels,  
 A. Golubeva-Zadorozhnaya,  J. Gomes,  A. Gunina,  M. W. D. Hanson-Heine,  
 P. H. P. Harbach,  A. W. Hauser,  E. G. Hohenstein,  Z. C. Holden,  K. Hui,  
 T.-C. Jagau,  H. Ji,  B. Kaduk,  K. Khistyaev,  Jaehoon Kim,  Jihan Kim,  
 R. A. King,  P. Klunzinger,  D. Kosenkov,  T. Kowalczyk,  C. M. Krauter,  
 K. U. Lao,  A. Laurent,  K. V. Lawler,  S. Lehtola,  S. V. Levchenko,  
 C. Y. Lin,  Y.-S. Lin,  F. Liu,  E. Livshits,  R. C. Lochan,  A. Luenser,  
 P. Manohar,  S. F. Manzer,  S.-P. Mao,  N. Mardirossian,  A. V. Marenich,  
 L. A. Martinez-Martinez,  S. A. Maurer,  N. J. Mayhall,  K. Nanda,  
 C. M. Oana,  R. Olivares-Amaya,  D. P. O'Neill,  J. A. Parkhill,  
 T. M. Perrine,  R. Peverati,  P. A. Pieniazek,  F. Plasser,  A. Prociuk,  
 D. R. Rehn,  E. Rosta,  N. J. Russ,  N. Sergueev,  S. M. Sharada,  
 S. Sharma,  D. W. Small,  A. Sodt,  T. Stauch,  T. Stein,  D. Stuck,  
 Y.-C. Su,  A. J. W. Thom,  T. Tsuchimochi,  L. Vogt,  O. Vydrov,  T. Wang,  
 M. A. Watson,  J. Wenzel,  A. White,  C. F. Williams,  V. Vanovschi,  
 S. Yeganeh,  S. R. Yost,  Z.-Q. You,  I. Y. Zhang,  X. Zhang,  Y. Zhao,  
 B. R. Brooks,  G. K. L. Chan,  D. M. Chipman,  C. J. Cramer,  
 W. A. Goddard III,  M. S. Gordon,  W. J. Hehre,  A. Klamt,  
 H. F. Schaefer III,  M. W. Schmidt,  C. D. Sherrill,  D. G. Truhlar,  
 A. Warshel,  X. Xu,  A. Aspuru-Guzik,  R. Baer,  A. T. Bell,  N. A. Besley,  
 J.-D. Chai,  A. Dreuw,  B. D. Dunietz,  T. R. Furlani,  S. R. Gwaltney,  
 C.-P. Hsu,  Y. Jung,  J. Kong,  D. S. Lambrecht,  W. Liang,  C. Ochsenfeld,  
 V. A. Rassolov,  L. V. Slipchenko,  J. E. Subotnik,  T. Van Voorhis,  
 J. M. Herbert,  A. I. Krylov,  P. M. W. Gill,  M. Head-Gordon

 Contributors to earlier versions of Q-Chem not listed above: 
 R. D. Adamson,  J. Baker,  E. F. C. Byrd,  A. K. Chakraborty,  C.-L. Cheng,  
 H. Dachsel,  R. J. Doerksen,  G. Hawkins,  A. Heyden,  S. Hirata,  
 G. Kedziora,  F. J. Keil,  C. Kelley,  P. P. Korambath,  W. Kurlancheek,  
 A. M. Lee,  M. S. Lee,  D. Liotard,  I. Lotan,  P. E. Maslen,  N. Nair,  
 D. Neuhauser,  R. Olson,  B. Peters,  J. Ritchie,  N. E. Schultz,  
 N. Shenvi,  A. C. Simmonett,  K. S. Thanthiriwatte,  Q. Wu,  W. Zhang

 Please cite Q-Chem as follows:
 Y. Shao et al., Mol. Phys. 113, 184-215 (2015)
 DOI: 10.1080/00268976.2014.952696

 Q-Chem 4.3.0 for Intel X86 EM64T Linux

 Parts of Q-Chem use Armadillo 5.200.1 (Boston Tea Smuggler).
 http://arma.sourceforge.net/

 Q-Chem begins on Mon Mar 20 16:11:03 2017  


Host: 0

     Scratch files written to /home/nmayhall/scratch_qchem/08//
 Dec1416 |home|nmayhall|qcSoftware|qchem|qchem.svn-casman|libmdc|qstr_RNUM -1
 Using version located at /home/nmayhall/qcSoftware/qchem/qchem.svn-casman/bin/qchem


Total Memory Limit in MB = 2000
Mega-Array Size in MB = 62

Checking the input file for inconsistencies... 	...done.

 Q-Chem warning in module /home/nmayhall/qcSoftware/qchem/qchem.svn-casman/forms1/BasisType.C, line 1452:

 You are not using the predefined 5D/6D in this basis set.

Finally everything over in PARseQInput

--------------------------------------------------------------
User input:
--------------------------------------------------------------
$rem
	exchange 		hf
	unrestricted		1
	basis			6-31g*	
	aux_basis		rimp2-vdz
	scf_guess		core	
	scf_convergence		8
	purecart		1111

	symmetry		0
	sym_ignore		1

	!correlation		sf-cas
	!cas_n_spin_flip		1
	!cas_local		1
	gui			2
$end

$development
	1sf_heis_projection	1
$end

$molecule
0 13
H         -0.73854       -0.54065        0.08576
H         -2.31340       -1.01748       -0.67017
H         -2.09582        0.65549       -0.01146
H         -2.21044       -0.75437        1.11995
H	1.47674	3.87203	0.09828
H	0.1685	4.46022	1.20546
H	0.18287	2.7348	0.65668
H	-0.21686	4.05528	-0.51743
H          3.48850       -0.87553       -0.06084
H          2.29649        0.48578       -0.00191
H          1.93960       -1.06676        0.85992
H          1.91588       -1.00965       -0.95022
He	10	10	10	
He	-10	10	10	
$end


--------------------------------------------------------------
 ----------------------------------------------------------------
             Standard Nuclear Orientation (Angstroms)
    I     Atom           X                Y                Z
 ----------------------------------------------------------------
    1      H      -0.7385400000    -0.5406500000     0.0857600000
    2      H      -2.3134000000    -1.0174800000    -0.6701700000
    3      H      -2.0958200000     0.6554900000    -0.0114600000
    4      H      -2.2104400000    -0.7543700000     1.1199500000
    5      H       1.4767400000     3.8720300000     0.0982800000
    6      H       0.1685000000     4.4602200000     1.2054600000
    7      H       0.1828700000     2.7348000000     0.6566800000
    8      H      -0.2168600000     4.0552800000    -0.5174300000
    9      H       3.4885000000    -0.8755300000    -0.0608400000
   10      H       2.2964900000     0.4857800000    -0.0019100000
   11      H       1.9396000000    -1.0667600000     0.8599200000
   12      H       1.9158800000    -1.0096500000    -0.9502200000
   13      He     10.0000000000    10.0000000000    10.0000000000
   14      He    -10.0000000000    10.0000000000    10.0000000000
 ----------------------------------------------------------------
 Nuclear Repulsion Energy =    12.4113761730 hartrees
 There are       14 alpha and        2 beta electrons
 Requested basis set is 6-31G(d)
 There are 28 shells and 28 basis functions

Total QAlloc Memory Limit   2000 MB
Mega-Array Size        61 MB
MEM_STATIC part        62 MB

finished with qalloc call

                       Distance Matrix (Angstroms)
             H (  1)   H (  2)   H (  3)   H (  4)   H (  5)   H (  6)
   H (  2)  1.810796
   H (  3)  1.811743  1.811096
   H (  4)  1.811550  1.812280  1.811334
   H (  5)  4.937547  6.234018  4.808467  6.003556
   H (  6)  5.204340  6.299445  4.591733  5.732244  1.811990
   H (  7)  3.450148  4.698032  3.156322  4.256390  1.810857  1.810646
   H (  8)  4.664607  5.491057  3.917278  5.457848  1.811342  1.811306
   H (  9)  4.242818  5.835536  5.790604  5.821242  5.158665  6.410627
   H ( 10)  3.205098  4.894635  4.395598  4.807178  3.485501  4.667147
   H ( 11)  2.836997  4.520134  4.473261  4.169896  5.018564  5.814095
   H ( 12)  2.887761  4.238549  4.443838  4.623558  5.012284  6.133496
   He( 13) 18.019814 19.668686 18.271783 18.536629 14.430594 14.307043
   He( 14) 17.180573 17.155792 15.812187 15.974636 16.349668 14.540684
             H (  7)   H (  8)   H (  9)   H ( 10)   H ( 11)   H ( 12)
   H (  8)  1.811625
   H (  9)  4.947374  6.184744
   H ( 10)  3.155823  4.395909  1.810394
   H ( 11)  4.192763  5.725618  1.812032  1.811216
   H ( 12)  4.427907  5.512658  1.811662  1.811206  1.811196
   He( 13) 15.377152 15.822145 16.183241 15.808310 16.461600 17.506362
   He( 14) 15.613187 15.545606 20.035900 18.486813 18.669984 19.573143
             He( 13)
   He( 14) 20.000000


 Q-Chem warning in module /home/nmayhall/qcSoftware/qchem/qchem.svn-casman/forms1/BasisType.C, line 1375:

 SAD: How to set up polarization functions for non-Pople basis?

 Requested basis set is rimp2-VDZ
 There are 82 shells and 186 basis functions
 Job number = 2, Threshold = 1.00E-11
Integral type ranges set in mkLRange.C for JobNum: 2  <1-7|1-7>
Symmetry turned off temporarily
 Using the largest function pair in Schwarz integrals
Total number of integrals generated =            1003
Symmetry turned back on
 A cutoff of  1.0D-11 yielded    277 shell pairs
 There are       277 function pairs
 Job number = 11, Threshold = 1.00E-11
Integral type ranges set in mkLRange.C for JobNum: 11  <1-1|8-8>

 -------------------------------------------------------
 OpenMP Integral Computing Module                       
 Release: version 1.0, May 2013, Q-Chem Inc. Pittsburgh 
 -------------------------------------------------------
 Integral Job Info:
 Integral job number is                      11
 Integral operator is                         1
 short-range coefficients                     0
 long-range coefficients              100000000
 Omega coefficients                           0
 if combine SR and LR in K                    0
 Integral screening is                        0
 Integral computing path is                   2
 max size of driver memory is            800000
 size of driver memory is                 11780
 size of scratch memory is               800000
 max col of scratch BK array                289
 max len of scratch array in speh3            1
 max len of scratch index in speh4            2
 max int batch size is                      520
 min int batch size is                       52
 fixed nKL is                               520
 max L of basis functions is                  0
 order of int derivative is                   0
 number of shells is                         28
 number of basis is                          28
 number of cartesian basis is                28
 number of contracted shell pairs           277
 number of primitive shell pairs            789
 maxK2 (contraction) of shell pair            9
 max number of K2 of shell pair               1
 max number of CS2 of shell pair            142
 max number of PS2 of shell pair            426
 mem total for path MDJ                    6720
 -------------------------------------------------------
 Smallest overlap matrix eigenvalue = 2.11E-01
 Multipole matrices computed through 2nd order

  Scale SEOQF with 1.000000e-02/1.000000e-02/1.000000e-02

 Standard Electronic Orientation quadrupole field applied
 Nucleus-field energy     =     0.0000000006 hartrees
GuessMan:  IGuess = 1
 Guess MOs from core Hamiltonian diagonalization
scfman initvdwdat 
 An unrestricted Hartree-Fock SCF calculation will be
 performed using Pulay DIIS extrapolation
 SCF converges when DIIS error is below 1.0E-08
Finding J and K together
 Job number = 22, Threshold = 1.00E-11
Integral type ranges set in mkLRange.C for JobNum: 22  <1-1|1-1>
Storing 4722.18% of integrals
Total number of integrals generated =           34540
 MakeJK  time:  CPU       0.02 s  wall       0.01 s
Fock build time:  0.02 s (CPU) 0.01 s (wall)
DIIS Errors:  Max 3.26E-01 RMS 2.74E-02

Current DIIS subspace size = 1
REM_GRID_RESTART_DIIS = 0

 ---------------------------------------
  Cycle       Energy         DIIS Error
 ---------------------------------------
    1      -9.5220509792      2.74E-02  00000
Finding J and K together
 Job number = 22, Threshold = 1.00E-11
Integral type ranges set in mkLRange.C for JobNum: 22  <1-1|1-1>
Storing 4722.18% of integrals
Reusing in-core integrals buffer for job 22
 MakeJK  time:  CPU       0.00 s  wall       0.00 s
Fock build time:  0.00 s (CPU) 0.00 s (wall)
DIIS Errors:  Max 2.54E-01 RMS 1.88E-02

Current DIIS subspace size = 2
REM_GRID_RESTART_DIIS = 0

    2     -11.3775741206      1.88E-02  00000
Finding J and K together
 Job number = 22, Threshold = 1.00E-11
Integral type ranges set in mkLRange.C for JobNum: 22  <1-1|1-1>
Storing 4722.18% of integrals
Reusing in-core integrals buffer for job 22
 MakeJK  time:  CPU       0.00 s  wall       0.00 s
Fock build time:  0.00 s (CPU) 0.00 s (wall)
DIIS Errors:  Max 1.10E-01 RMS 8.32E-03

Current DIIS subspace size = 3
REM_GRID_RESTART_DIIS = 0

    3     -11.4395142793      8.32E-03  00000
Finding J and K together
 Job number = 22, Threshold = 1.00E-11
Integral type ranges set in mkLRange.C for JobNum: 22  <1-1|1-1>
Storing 4722.18% of integrals
Reusing in-core integrals buffer for job 22
 MakeJK  time:  CPU       0.00 s  wall       0.00 s
Fock build time:  0.00 s (CPU) 0.00 s (wall)
DIIS Errors:  Max 7.56E-03 RMS 6.85E-04

Current DIIS subspace size = 4
REM_GRID_RESTART_DIIS = 0

    4     -11.4690047454      6.85E-04  00000
Finding J and K together
 Job number = 22, Threshold = 1.00E-11
Integral type ranges set in mkLRange.C for JobNum: 22  <1-1|1-1>
Storing 4722.18% of integrals
Reusing in-core integrals buffer for job 22
 MakeJK  time:  CPU       0.00 s  wall       0.00 s
Fock build time:  0.00 s (CPU) 0.00 s (wall)
DIIS Errors:  Max 1.33E-04 RMS 9.80E-06

Current DIIS subspace size = 5
REM_GRID_RESTART_DIIS = 0

    5     -11.4714429661      9.80E-06  00000
Finding J and K together
 Job number = 22, Threshold = 1.00E-11
Integral type ranges set in mkLRange.C for JobNum: 22  <1-1|1-1>
Storing 4722.18% of integrals
Reusing in-core integrals buffer for job 22
 MakeJK  time:  CPU       0.00 s  wall       0.00 s
Fock build time:  0.00 s (CPU) 0.00 s (wall)
DIIS Errors:  Max 9.71E-06 RMS 7.12E-07

Current DIIS subspace size = 6
REM_GRID_RESTART_DIIS = 0

    6     -11.4715416520      7.12E-07  00000
Finding J and K together
 Job number = 22, Threshold = 1.00E-11
Integral type ranges set in mkLRange.C for JobNum: 22  <1-1|1-1>
Storing 4722.18% of integrals
Reusing in-core integrals buffer for job 22
 MakeJK  time:  CPU       0.00 s  wall       0.00 s
Fock build time:  0.00 s (CPU) 0.00 s (wall)
DIIS Errors:  Max 9.43E-07 RMS 7.19E-08

Current DIIS subspace size = 7
REM_GRID_RESTART_DIIS = 0

    7     -11.4715588270      7.19E-08  00000
Finding J and K together
 Job number = 22, Threshold = 1.00E-11
Integral type ranges set in mkLRange.C for JobNum: 22  <1-1|1-1>
Storing 4722.18% of integrals
Reusing in-core integrals buffer for job 22
 MakeJK  time:  CPU       0.00 s  wall       0.00 s
Fock build time:  0.00 s (CPU) 0.00 s (wall)
DIIS Errors:  Max 1.68E-07 RMS 1.22E-08

Current DIIS subspace size = 8
REM_GRID_RESTART_DIIS = 0

    8     -11.4715620204      1.22E-08  00000
Finding J and K together
 Job number = 22, Threshold = 1.00E-11
Integral type ranges set in mkLRange.C for JobNum: 22  <1-1|1-1>
Storing 4722.18% of integrals
Reusing in-core integrals buffer for job 22
 MakeJK  time:  CPU       0.00 s  wall       0.00 s
Fock build time:  0.00 s (CPU) 0.00 s (wall)
DIIS Errors:  Max 1.02E-08 RMS 7.32E-10

Current DIIS subspace size = 9
REM_GRID_RESTART_DIIS = 0

    9     -11.4715622999      7.32E-10  00000 Convergence criterion met
 ---------------------------------------
 <S^2> = 42.0000
 SCF time:  CPU 0.06 s  wall 0.06 s
 SCF   energy in the final basis set = -11.4715622999
 Total energy in the final basis set = -11.4715622999
Symmetry turned off temporarily
 Analysis of SCF Wavefunction

 --------------------------------------------------------------

                    Orbital Energies (a.u.)
 --------------------------------------------------------------

 Alpha MOs
 -- Occupied --
 -0.914  -0.914  -0.709  -0.701  -0.698  -0.469  -0.466  -0.458
 -0.455  -0.454  -0.452  -0.449  -0.443  -0.438
 -- Virtual --
  0.825   0.858   0.885   0.905   0.917   0.928   0.958   0.976
  0.990   1.058   1.121   1.152   1.400   1.400

 Beta MOs
 -- Occupied --
 -0.914  -0.914
 -- Virtual --
 -0.050  -0.038  -0.033   0.138   0.143   0.154   0.160   0.163
  0.166   0.175   0.187   0.194   1.047   1.074   1.094   1.111
  1.121   1.130   1.156   1.173   1.186   1.261   1.319   1.347
  1.400   1.400
 --------------------------------------------------------------

          Ground-State Mulliken Net Atomic Charges

     Atom                 Charge (a.u.)    Spin (a.u.)
  --------------------------------------------------------
      1 H                     0.000095       0.999905
      2 H                     0.000010       0.999990
      3 H                    -0.000009       1.000009
      4 H                     0.000004       0.999996
      5 H                    -0.000013       1.000013
      6 H                     0.000008       0.999992
      7 H                     0.000014       0.999986
      8 H                    -0.000012       1.000012
      9 H                     0.000067       0.999933
     10 H                    -0.000026       1.000026
     11 H                    -0.000067       1.000067
     12 H                    -0.000070       1.000070
     13 He                    0.000000       0.000000
     14 He                    0.000000       0.000000
  --------------------------------------------------------
  Sum of atomic charges =     0.000000
  Sum of spin   charges =    12.000000

 -----------------------------------------------------------------
                    Cartesian Multipole Moments
 -----------------------------------------------------------------
    Charge (ESU x 10^10)
                 0.0000
    Dipole Moment (Debye)
         X      -0.0004      Y      -0.0005      Z       0.0002
       Tot       0.0007
    Quadrupole Moments (Debye-Ang)
        XX     -19.6088     XY       0.0141     YY     -19.5311
        XZ      -0.0001     YZ      -0.0051     ZZ     -19.5132
    Octopole Moments (Debye-Ang^2)
       XXX     -19.5115    XXY     -36.3120    XYY      -4.8383
       YYY    -111.5889    XXZ     -22.9202    XYZ      -0.0097
       YYZ     -23.8019    XZZ      -4.1138    YZZ     -36.2286
       ZZZ     -70.7103
    Hexadecapole Moments (Debye-Ang^3)
      XXXX   -1642.4767   XXXY     -14.0924   XXYY    -579.6142
      XYYY     -11.8356   YYYY   -1818.5245   XXXZ       3.4183
      XXYZ    -214.8561   XYYZ       0.0560   YYYZ    -654.2856
      XXZZ    -491.0314   XYZZ      -3.7851   YYZZ    -529.5510
      XZZZ       4.4602   YZZZ    -648.8521   ZZZZ   -1318.2280
 -----------------------------------------------------------------
 JobOver = TRUE
Archival summary:
1\1\sinatra\SP\HF\6-31G*\e212()\nmayhall\MonMar2016:11:042017MonMar2016:11:042017\0\\#,HF,6-31G*,\\0,13\H\H,1,1.8108\H,2,1.8111,1,60.0291\H,3,1.81133,2,60.0389,1,70.5227,0\H,1,2.837,2,152.386,3,178.05,0\H,5,1.8112,1,73.0863,2,-68.5028,0\H,6,1.81121,5,60.0005,1,-92.9521,0\H,7,1.81039,6,60.0315,5,-70.571,0\H,7,3.15582,6,123.844,5,98.0828,0\H,9,1.81065,7,138.39,6,162.988,0\H,9,1.81086,7,84.529,6,132.665,0\H,10,1.81131,9,60.0237,7,-105.967,0\He,10,14.307,9,123.356,7,32.6333,0\He,10,14.5407,9,123.498,7,144.969,0\\HF=-11.4715623\\@

 Total job time:  0.13s(wall), 0.13s(cpu) 
 Mon Mar 20 16:11:04 2017

        *************************************************************
        *                                                           *
        *  Thank you very much for using Q-Chem.  Have a nice day.  *
        *                                                           *
        *************************************************************


*** MISSION COMPLETED -- STARFLEET OUT ***

 
User input: 2 of 2 
 
                  Welcome to Q-Chem
     A Quantum Leap Into The Future Of Chemistry


 Q-Chem 4.3, Q-Chem, Inc., Pleasanton, CA (2015)

 Y. Shao,  Z. Gan,  E. Epifanovsky,  A. T. B. Gilbert,  M. Wormit,  
 J. Kussmann,  A. W. Lange,  A. Behn,  J. Deng,  X. Feng,  D. Ghosh,  
 M. Goldey,  P. R. Horn,  L. D. Jacobson,  I. Kaliman,  R. Z. Khaliullin,  
 T. Kus,  A. Landau,  J. Liu,  E. I. Proynov,  Y. M. Rhee,  R. M. Richard,  
 M. A. Rohrdanz,  R. P. Steele,  E. J. Sundstrom,  H. L. Woodcock III,  
 P. M. Zimmerman,  D. Zuev,  B. Albrecht,  E. Alguire,  B. Austin,  
 S. A. Baeppler,  G. J. O. Beran,  Y. A. Bernard,  E. Berquist,  
 K. Brandhorst,  K. B. Bravaya,  S. T. Brown,  D. Casanova,  C.-M. Chang,  
 Y. Chen,  S. H. Chien,  K. D. Closser,  D. L. Crittenden,  M. Diedenhofen,  
 R. A. DiStasio Jr.,  H. Do,  A. D. Dutoi,  R. G. Edgar,  P.-T. Fang,  
 S. Fatehi,  Q. Feng,  L. Fusti-Molnar,  A. Ghysels,  
 A. Golubeva-Zadorozhnaya,  J. Gomes,  A. Gunina,  M. W. D. Hanson-Heine,  
 P. H. P. Harbach,  A. W. Hauser,  E. G. Hohenstein,  Z. C. Holden,  K. Hui,  
 T.-C. Jagau,  H. Ji,  B. Kaduk,  K. Khistyaev,  Jaehoon Kim,  Jihan Kim,  
 R. A. King,  P. Klunzinger,  D. Kosenkov,  T. Kowalczyk,  C. M. Krauter,  
 K. U. Lao,  A. Laurent,  K. V. Lawler,  S. Lehtola,  S. V. Levchenko,  
 C. Y. Lin,  Y.-S. Lin,  F. Liu,  E. Livshits,  R. C. Lochan,  A. Luenser,  
 P. Manohar,  S. F. Manzer,  S.-P. Mao,  N. Mardirossian,  A. V. Marenich,  
 L. A. Martinez-Martinez,  S. A. Maurer,  N. J. Mayhall,  K. Nanda,  
 C. M. Oana,  R. Olivares-Amaya,  D. P. O'Neill,  J. A. Parkhill,  
 T. M. Perrine,  R. Peverati,  P. A. Pieniazek,  F. Plasser,  A. Prociuk,  
 D. R. Rehn,  E. Rosta,  N. J. Russ,  N. Sergueev,  S. M. Sharada,  
 S. Sharma,  D. W. Small,  A. Sodt,  T. Stauch,  T. Stein,  D. Stuck,  
 Y.-C. Su,  A. J. W. Thom,  T. Tsuchimochi,  L. Vogt,  O. Vydrov,  T. Wang,  
 M. A. Watson,  J. Wenzel,  A. White,  C. F. Williams,  V. Vanovschi,  
 S. Yeganeh,  S. R. Yost,  Z.-Q. You,  I. Y. Zhang,  X. Zhang,  Y. Zhao,  
 B. R. Brooks,  G. K. L. Chan,  D. M. Chipman,  C. J. Cramer,  
 W. A. Goddard III,  M. S. Gordon,  W. J. Hehre,  A. Klamt,  
 H. F. Schaefer III,  M. W. Schmidt,  C. D. Sherrill,  D. G. Truhlar,  
 A. Warshel,  X. Xu,  A. Aspuru-Guzik,  R. Baer,  A. T. Bell,  N. A. Besley,  
 J.-D. Chai,  A. Dreuw,  B. D. Dunietz,  T. R. Furlani,  S. R. Gwaltney,  
 C.-P. Hsu,  Y. Jung,  J. Kong,  D. S. Lambrecht,  W. Liang,  C. Ochsenfeld,  
 V. A. Rassolov,  L. V. Slipchenko,  J. E. Subotnik,  T. Van Voorhis,  
 J. M. Herbert,  A. I. Krylov,  P. M. W. Gill,  M. Head-Gordon

 Contributors to earlier versions of Q-Chem not listed above: 
 R. D. Adamson,  J. Baker,  E. F. C. Byrd,  A. K. Chakraborty,  C.-L. Cheng,  
 H. Dachsel,  R. J. Doerksen,  G. Hawkins,  A. Heyden,  S. Hirata,  
 G. Kedziora,  F. J. Keil,  C. Kelley,  P. P. Korambath,  W. Kurlancheek,  
 A. M. Lee,  M. S. Lee,  D. Liotard,  I. Lotan,  P. E. Maslen,  N. Nair,  
 D. Neuhauser,  R. Olson,  B. Peters,  J. Ritchie,  N. E. Schultz,  
 N. Shenvi,  A. C. Simmonett,  K. S. Thanthiriwatte,  Q. Wu,  W. Zhang

 Please cite Q-Chem as follows:
 Y. Shao et al., Mol. Phys. 113, 184-215 (2015)
 DOI: 10.1080/00268976.2014.952696

 Q-Chem 4.3.0 for Intel X86 EM64T Linux

 Parts of Q-Chem use Armadillo 5.200.1 (Boston Tea Smuggler).
 http://arma.sourceforge.net/

 Q-Chem begins on Mon Mar 20 16:11:04 2017  


Host: 0

     Scratch files written to /home/nmayhall/scratch_qchem/08//
 Dec1416 |home|nmayhall|qcSoftware|qchem|qchem.svn-casman|libmdc|qstr_RNUM -1
 Using version located at /home/nmayhall/qcSoftware/qchem/qchem.svn-casman/bin/qchem

 Turning off symmetry for CASMAN

Total Memory Limit in MB = 2000
Mega-Array Size in MB = 62

Checking the input file for inconsistencies... 	...done.

 Q-Chem warning in module /home/nmayhall/qcSoftware/qchem/qchem.svn-casman/forms1/BasisType.C, line 1452:

 You are not using the predefined 5D/6D in this basis set.

Finally everything over in PARseQInput

--------------------------------------------------------------
User input:
--------------------------------------------------------------
$rem
	exchange 		hf
	unrestricted		0
	basis			6-31g*	
	aux_basis		rimp2-vdz
	scf_guess		read	
	scf_convergence		8
	purecart		1111

	symmetry		0
	sym_ignore		1

	correlation		sf-cas
	cas_n_spin_flip		1
	cas_local		1
	gui			2
$end

$development
	1sf_heis_projection	1
	scf_corresponding_orbs	1
$end

$molecule
read
$end

--------------------------------------------------------------
 ----------------------------------------------------------------
             Standard Nuclear Orientation (Angstroms)
    I     Atom           X                Y                Z
 ----------------------------------------------------------------
    1      H      -0.7385400000    -0.5406500000     0.0857600000
    2      H      -2.3134000000    -1.0174800000    -0.6701700000
    3      H      -2.0958200000     0.6554900000    -0.0114600000
    4      H      -2.2104400000    -0.7543700000     1.1199500000
    5      H       1.4767400000     3.8720300000     0.0982800000
    6      H       0.1685000000     4.4602200000     1.2054600000
    7      H       0.1828700000     2.7348000000     0.6566800000
    8      H      -0.2168600000     4.0552800000    -0.5174300000
    9      H       3.4885000000    -0.8755300000    -0.0608400000
   10      H       2.2964900000     0.4857800000    -0.0019100000
   11      H       1.9396000000    -1.0667600000     0.8599200000
   12      H       1.9158800000    -1.0096500000    -0.9502200000
   13      He     10.0000000000    10.0000000000    10.0000000000
   14      He    -10.0000000000    10.0000000000    10.0000000000
 ----------------------------------------------------------------
 Nuclear Repulsion Energy =    12.4113761730 hartrees
 There are       14 alpha and        2 beta electrons
 Requested basis set is 6-31G(d)
 There are 28 shells and 28 basis functions

Total QAlloc Memory Limit   2000 MB
Mega-Array Size        61 MB
MEM_STATIC part        62 MB

finished with qalloc call

                       Distance Matrix (Angstroms)
             H (  1)   H (  2)   H (  3)   H (  4)   H (  5)   H (  6)
   H (  2)  1.810796
   H (  3)  1.811743  1.811096
   H (  4)  1.811550  1.812280  1.811334
   H (  5)  4.937547  6.234018  4.808467  6.003556
   H (  6)  5.204340  6.299445  4.591733  5.732244  1.811990
   H (  7)  3.450148  4.698032  3.156322  4.256390  1.810857  1.810646
   H (  8)  4.664607  5.491057  3.917278  5.457848  1.811342  1.811306
   H (  9)  4.242818  5.835536  5.790604  5.821242  5.158665  6.410627
   H ( 10)  3.205098  4.894635  4.395598  4.807178  3.485501  4.667147
   H ( 11)  2.836997  4.520134  4.473261  4.169896  5.018564  5.814095
   H ( 12)  2.887761  4.238549  4.443838  4.623558  5.012284  6.133496
   He( 13) 18.019814 19.668686 18.271783 18.536629 14.430594 14.307043
   He( 14) 17.180573 17.155792 15.812187 15.974636 16.349668 14.540684
             H (  7)   H (  8)   H (  9)   H ( 10)   H ( 11)   H ( 12)
   H (  8)  1.811625
   H (  9)  4.947374  6.184744
   H ( 10)  3.155823  4.395909  1.810394
   H ( 11)  4.192763  5.725618  1.812032  1.811216
   H ( 12)  4.427907  5.512658  1.811662  1.811206  1.811196
   He( 13) 15.377152 15.822145 16.183241 15.808310 16.461600 17.506362
   He( 14) 15.613187 15.545606 20.035900 18.486813 18.669984 19.573143
             He( 13)
   He( 14) 20.000000


 Q-Chem warning in module /home/nmayhall/qcSoftware/qchem/qchem.svn-casman/forms1/BasisType.C, line 1375:

 SAD: How to set up polarization functions for non-Pople basis?

 Requested basis set is rimp2-VDZ
 There are 82 shells and 186 basis functions
 Job number = 2, Threshold = 1.00E-12
Integral type ranges set in mkLRange.C for JobNum: 2  <1-7|1-7>
Symmetry turned off temporarily
 Using the largest function pair in Schwarz integrals
Total number of integrals generated =            1008
Symmetry turned back on
 A cutoff of  1.0D-12 yielded    282 shell pairs
 There are       282 function pairs
 Job number = 11, Threshold = 1.00E-12
Integral type ranges set in mkLRange.C for JobNum: 11  <1-1|8-8>

 -------------------------------------------------------
 OpenMP Integral Computing Module                       
 Release: version 1.0, May 2013, Q-Chem Inc. Pittsburgh 
 -------------------------------------------------------
 Integral Job Info:
 Integral job number is                      11
 Integral operator is                         1
 short-range coefficients                     0
 long-range coefficients              100000000
 Omega coefficients                           0
 if combine SR and LR in K                    0
 Integral screening is                        0
 Integral computing path is                   2
 max size of driver memory is            800000
 size of driver memory is                 11780
 size of scratch memory is               800000
 max col of scratch BK array                289
 max len of scratch array in speh3            1
 max len of scratch index in speh4            2
 max int batch size is                      520
 min int batch size is                       52
 fixed nKL is                               520
 max L of basis functions is                  0
 order of int derivative is                   0
 number of shells is                         28
 number of basis is                          28
 number of cartesian basis is                28
 number of contracted shell pairs           282
 number of primitive shell pairs            800
 maxK2 (contraction) of shell pair            9
 max number of K2 of shell pair               1
 max number of CS2 of shell pair            148
 max number of PS2 of shell pair            444
 mem total for path MDJ                    6792
 -------------------------------------------------------
 Smallest overlap matrix eigenvalue = 2.11E-01
 Multipole matrices computed through 2nd order

  Scale SEOQF with 1.000000e-02/1.000000e-02/1.000000e-02

 Standard Electronic Orientation quadrupole field applied
 Nucleus-field energy     =     0.0000000006 hartrees
GuessMan:  IGuess = 1000
 Guess MOs from SCF MO coefficient file
 Reading MOs from coefficient file
 Reading MOs from coefficient file
scfman initvdwdat 
 A restricted Hartree-Fock SCF calculation will be
 performed using Geometric Direct Minimization
 SCF converges when RMS gradient is below 1.0E-08
Finding J and K together
 Job number = 22, Threshold = 1.00E-12
Integral type ranges set in mkLRange.C for JobNum: 22  <1-1|1-1>
Storing 4556.50% of integrals
Total number of integrals generated =           36020
 MakeJK  time:  CPU       0.01 s  wall       0.01 s
Fock build time:  0.01 s (CPU) 0.01 s (wall)
 ---------------------------------------
  Cycle       Energy        RMS Gradient
 ---------------------------------------
    1     -11.4715623269      9.95E-05  00000 Normal BFGS step
Finding J and K together
 Job number = 22, Threshold = 1.00E-12
Integral type ranges set in mkLRange.C for JobNum: 22  <1-1|1-1>
Storing 4556.50% of integrals
Reusing in-core integrals buffer for job 22
 MakeJK  time:  CPU       0.00 s  wall       0.00 s
Fock build time:  0.00 s (CPU) 0.00 s (wall)
    2     -11.4715623322      4.28E-10  00000 Convergence criterion met
 ---------------------------------------
 SCF time:  CPU 0.02 s  wall 0.02 s
 Obtaining Corresponding orbitals

 Forming corresponding orbitals block-by-block...
 Size of singly occupied alpha block:      12 : 12.0000
 Size of doubly occupied block:             2 : 2.0000
 Size of singly occupied beta block:        0 : 0.0000
 Size of unoccupied block:                 14 : 14.0000
 Use scf_boys =     0 (Canonical)
                    1 (Boys)
                    2 (Pipek-Mezey)
                    3 (ER)
 Build new fock matrix
 I'm here
 I'm here
 Calling AOints...
 Job number = 22, Threshold = 1.00E-12
Integral type ranges set in mkLRange.C for JobNum: 22  <1-1|1-1>
Storing 4556.50% of integrals
 done.
 E(SCF): disk=    -11.471562332181 current=    -11.471562332181 diff=   8.882e-15
 SCF   energy in the final basis set = -11.4715623322
 Total energy in the final basis set = -11.4715623322
 DevKeyword Parameters: 
 1sf_heis_projection                   1
scf_corresponding_orbs                   1


 ========================================================
                       In SF-CAS-CI                      
 ========================================================
 DevKeyword Parameters: 
 1sf_heis_projection                   1
scf_corresponding_orbs                   1

 Forming orbitals for SF-CAS calculation.
NBas   : 28
NOrb   : 28
NDOcc  : 2
NSOcc  : 12
NDVir  : 14
ISpin  : 0
e_hf: -11.47156233
 Using OPT1 Orbitals: Favg | Favg | Favg 
 A/B mix in Doubly occupied F  : 0.50000000
 A/B mix in Singly occupied F  : 0.50000000
 A/B mix in Doubly unoccupied F: 0.50000000
 Max of F(beta)ds      : 3.108e-16
 Max of F(alpha)sv     : 4.190e-12
 Max of F(average)dv   : 2.461e-11
 Orbital Energies  (D):
    1    -0.91413155    -0.91413155
    2    -0.91412578    -0.91412578
 Orbital Energies  (S):
    3    -0.36600474    -0.36600474
    4    -0.35675730    -0.35675730
    5    -0.35288950    -0.35288950
    6    -0.14463173    -0.14463173
    7    -0.14115406    -0.14115406
    8    -0.13223493    -0.13223493
    9    -0.12849748    -0.12849748
   10    -0.12664984    -0.12664984
   11    -0.12465922    -0.12465922
   12    -0.11960966    -0.11960966
   13    -0.11180954    -0.11180954
   14    -0.10658222    -0.10658222
 Orbital Energies  (V):
   15     0.91485383     0.91485383
   16     0.94534447     0.94534447
   17     0.96948921     0.96948921
   18     0.98932817     0.98932817
   19     1.00064670     1.00064670
   20     1.01083381     1.01083381
   21     1.03938998     1.03938998
   22     1.05816271     1.05816271
   23     1.07204697     1.07204697
   24     1.14607513     1.14607513
   25     1.20734462     1.20734462
   26     1.23730997     1.23730997
   27     1.39985441     1.39985441
   28     1.39986018     1.39986018
 tr(Pa)     :   14.0000000000
 tr(Pb)     :    2.0000000000
 E(core) with new P : -37.91768114
 E(HF) with new P   : -11.47156233
 Difference in Ehf  :   1.2434e-14

 Number of spin flips: 1
 Use cas_local =    0 (Canonical)
                    1 (Boys)
                    2 (Pipek-Mezey)
                    3 (ER)
 Using Boys orbitals in casman
 
 
 
Calling Get_Boys in C++
 
 
 
Orbital 8 Variance 10.17096142
Orbital 2 Variance 19.32350831
Orbital 9 Variance 22.03198409
Orbital 12 Variance 22.27205794
Orbital 3 Variance 23.45238821
Orbital 7 Variance 24.14340537
Orbital 5 Variance 25.00931623
Orbital 11 Variance 27.22521576
Orbital 4 Variance 27.23437160
Orbital 1 Variance 27.82703526
Orbital 6 Variance 28.74838387
Orbital 10 Variance 29.90838149
          ***** NUMBER OF SADDLE POINTS SO FAR = 0 ******

Initially in boys_jacobi.C before sweep, get_boys, boysval = 152.130349
In BOYS_JACOBI SWEEPS for get_boys, ending in round     5  because max_diff = 8.756374e-07


---> BEGIN 2nd Der Calculation    ******  
Guessing MaxD =  20 and MinD = 10
in get_boys.C: p = 0 guessthresh  52.5801303113 numsofar 18 MinD 10
in get_boys.C: p = 1 guessthresh  52.0801303113 numsofar 18 MinD 10
in get_boys.C: p = 2 guessthresh  51.8301303113 numsofar 18 MinD 10
in get_boys.C: p = 3 guessthresh  51.7051303113 numsofar 6 MinD 10
DimInGuess 6 mineval  51.5801303113 guessthresh  51.7051303113
round 0 sizeofsub 6 eval0 5.096039e+01 diffeval0 1.000500e+05 length_qM 1.113391e+00 thresh 1.000000e-08
round 1 sizeofsub 7 eval0 5.036270e+01 diffeval0 5.976975e-01 length_qM 1.077342e-01 thresh 1.000000e-08
round 2 sizeofsub 8 eval0 5.036191e+01 diffeval0 7.885227e-04 length_qM 2.514219e-01 thresh 1.000000e-08
round 3 sizeofsub 9 eval0 5.036055e+01 diffeval0 1.362027e-03 length_qM 1.635282e-02 thresh 1.000000e-08
round 4 sizeofsub 10 eval0 5.036054e+01 diffeval0 5.987628e-06 length_qM 1.817774e-02 thresh 1.000000e-08
round 5 sizeofsub 11 eval0 5.036053e+01 diffeval0 1.500554e-05 length_qM 5.739459e-03 thresh 1.000000e-08
round 6 sizeofsub 12 eval0 5.036052e+01 diffeval0 1.838162e-06 length_qM 1.340979e-03 thresh 1.000000e-08
round 7 sizeofsub 13 eval0 5.036052e+01 diffeval0 6.781441e-09 length_qM 1.057598e-05 thresh 1.000000e-08
round 8 sizeofsub 14 eval0 5.036052e+01 diffeval0 1.392664e-12 length_qM 2.078303e-06 thresh 1.000000e-08
round 9 sizeofsub 15 eval0 5.036052e+01 diffeval0 1.485034e-12 length_qM 1.117271e-05 thresh 1.000000e-08
round 10 sizeofsub 16 eval0 5.036052e+01 diffeval0 1.762146e-12 length_qM 6.151887e-07 thresh 1.000000e-08
Converged to smallest eigenvalue: eval0 5.036052e+01

Success!!! No Negative Eigenvalues: Ending Get Boys in C++ ...Bye Bye
Orbital 12 Variance 2.76548178
Orbital 9 Variance 2.77110056
Orbital 4 Variance 2.77263422
Orbital 11 Variance 2.77333020
Orbital 5 Variance 2.77460854
Orbital 3 Variance 2.77559559
Orbital 6 Variance 2.77578994
Orbital 7 Variance 2.77617327
Orbital 2 Variance 2.77632766
Orbital 1 Variance 2.77648782
Orbital 8 Variance 2.77665158
Orbital 10 Variance 2.77670428
EXECUTING ORTHO_FUNC DESTRUCTOR

 Dimensions of orbital sub-spaces:    
 Number Hole Orbs:Alpha:Beta:       2    2    2
 Number Active Orbs:Alpha:Beta:    12   11    1
 Number Part Orbs:Alpha:Beta:      14    0    0

 Dimensions in SF-RAS-hp calculation: 
 Number of active space determinants:  144
 Number of hole space determinants:    1608
 Number of part space determinants:    11256
 Number of hole-part determinants:     130060
 Total 1x space:                       13008
 Total singles space:                  143068
 REM_MEM_TOT: 2000
 Memory Used: 0
 Memory Left: 2000
 Memory Need: 2
 Constructing 1e MO integrals
 Form (P|Q)**(-1/2)...
 Job number = 66, Threshold = 1.00E-12
Integral type ranges set in mkLRange.C for JobNum: 66  <2-7|2-7>
Symmetry turned off temporarily
Storing 4556.50% of integrals
Total number of integrals generated =           19965
Symmetry turned back on
 Forming (pq|P)...
 Forming Active-Active (aa|P) integrals...

 Entering first-index batching code with I1Strt =    3 batch size =   12
 Job number = 65, Threshold = 1.00E-12
Integral type ranges set in mkLRange.C for JobNum: 65  <1-1|2-7>
Symmetry turned off temporarily
Storing 4556.50% of integrals
Total number of integrals generated =           55836
Symmetry turned back on
 Forming Active-Active B integrals...
 Contracting B matrices to form 2e integrals. 
 Forming 2J-K over o,v with exact integrals
 Calling AOints... Job number = 22, Threshold = 1.00E-12
Integral type ranges set in mkLRange.C for JobNum: 22  <1-1|1-1>
Storing 4556.50% of integrals
Total number of integrals generated =           36020
 done.

 ROHF energy found on disk: 
 E(ROHF):         -11.47156233
-11.47156233
 First 10 Diagonal elements of H: 
 11111111111_ | 1___________        -11.07889789
 11111111111_ | _1__________        -10.92017204
 11111111111_ | __1_________        -10.93142966
 11111111111_ | ___1________        -10.99221393
 11111111111_ | ____1_______        -11.07830636
 11111111111_ | _____1______        -10.97322059
 11111111111_ | ______1_____        -11.07873065
 11111111111_ | _______1____        -10.90820330
 11111111111_ | ________1___        -10.99520881
 11111111111_ | _________1__        -10.91373352
 Fill S2_CAS Matrix...  done.
 Fill H_CAS Matrix...  done.

 Diagonalizing H_CAS 
 Entering cast_sfcas_to_sfcis
 ===================================================================
 Theory           State:          Energy (au)       (eV)       <S2>
 -------------------------------------------------------------------
 SF-CAS               1:       -11.5297396120     0.0000    30.0000
 SF-CAS               2:       -11.5287911107     0.0258    30.0000
 SF-CAS               3:       -11.5283016326     0.0391    30.0000
 SF-CAS               4:       -11.5281632272     0.0429    30.0000
 SF-CAS               5:       -11.5279157568     0.0496    30.0000
 SF-CAS               6:       -11.5278853612     0.0505    30.0000
 SF-CAS               7:       -11.5278644695     0.0510    30.0000
 SF-CAS               8:       -11.5277420634     0.0544    30.0000
 SF-CAS               9:       -11.5276979804     0.0556    30.0000
 SF-CAS              10:       -11.4728218391     1.5488    30.0000
 SF-CAS              11:       -11.4720655280     1.5694    30.0000
 SF-CAS              12:       -11.4715623322     1.5831    42.0000
 SF-CAS              13:       -11.2092077996     8.7222    30.0000
 SF-CAS              14:       -11.2039548005     8.8651    30.0000
 SF-CAS              15:       -11.2035550806     8.8760    30.0000
 SF-CAS              16:       -11.2032331702     8.8848    30.0000
 SF-CAS              17:       -11.2027172979     8.8988    30.0000
 SF-CAS              18:       -11.2021000174     8.9156    30.0000
 SF-CAS              19:       -11.2018883946     8.9214    30.0000
 SF-CAS              20:       -11.2018235076     8.9231    30.0000
 SF-CAS              21:       -11.2016896214     8.9268    30.0000
 SF-CAS              22:       -11.1825522352     9.4475    30.0000
 SF-CAS              23:       -11.1742806219     9.6726    30.0000
 SF-CAS              24:       -11.1723838422     9.7242    30.0000
 SF-CAS              25:       -11.1679730275     9.8443    30.0000
 SF-CAS              26:       -11.1630969241     9.9770    30.0000
 SF-CAS              27:       -11.1622299034    10.0005    30.0000
 SF-CAS              28:       -11.1572773451    10.1353    30.0000
 SF-CAS              29:       -11.1513465889    10.2967    30.0000
 SF-CAS              30:       -11.1475501054    10.4000    30.0000
 SF-CAS              31:       -11.1444276804    10.4850    30.0000
 SF-CAS              32:       -11.1421957106    10.5457    30.0000
 SF-CAS              33:       -11.1413782305    10.5680    30.0000
 SF-CAS              34:       -11.1398925803    10.6084    30.0000
 SF-CAS              35:       -11.1362072898    10.7087    30.0000
 SF-CAS              36:       -11.1294524365    10.8925    30.0000
 SF-CAS              37:       -11.1292985091    10.8967    30.0000
 SF-CAS              38:       -11.1240738488    11.0388    30.0000
 SF-CAS              39:       -11.1225627301    11.0800    30.0000
 SF-CAS              40:       -11.0871560339    12.0434    30.0000
 SF-CAS              41:       -11.0860862255    12.0725    30.0000
 SF-CAS              42:       -11.0857378074    12.0820    30.0000
 SF-CAS              43:       -11.0856756584    12.0837    30.0000
 SF-CAS              44:       -11.0853251905    12.0932    30.0000
 SF-CAS              45:       -11.0852054662    12.0965    30.0000
 SF-CAS              46:       -11.0829340673    12.1583    30.0000
 SF-CAS              47:       -11.0827252777    12.1640    30.0000
 SF-CAS              48:       -11.0817035131    12.1918    30.0000
 SF-CAS              49:       -11.0814910670    12.1976    30.0000
 SF-CAS              50:       -11.0813322531    12.2019    30.0000
 SF-CAS              51:       -11.0810612246    12.2093    30.0000
 SF-CAS              52:       -11.0808878059    12.2140    30.0000
 SF-CAS              53:       -11.0796310815    12.2482    30.0000
 SF-CAS              54:       -11.0789464698    12.2668    30.0000
 SF-CAS              55:       -11.0789246752    12.2674    30.0000
 SF-CAS              56:       -11.0783854364    12.2821    30.0000
 SF-CAS              57:       -11.0765500698    12.3320    30.0000
 SF-CAS              58:       -10.9862999747    14.7879    30.0000
 SF-CAS              59:       -10.9809811039    14.9326    30.0000
 SF-CAS              60:       -10.9785932434    14.9976    30.0000
 SF-CAS              61:       -10.9764189664    15.0568    30.0000
 SF-CAS              62:       -10.9726085171    15.1605    30.0000
 SF-CAS              63:       -10.9693554287    15.2490    30.0000
 SF-CAS              64:       -10.9658310440    15.3449    30.0000
 SF-CAS              65:       -10.9630310778    15.4211    30.0000
 SF-CAS              66:       -10.9555498746    15.6247    30.0000
 SF-CAS              67:       -10.9543851284    15.6563    30.0000
 SF-CAS              68:       -10.9487214431    15.8105    30.0000
 SF-CAS              69:       -10.9477325816    15.8374    30.0000
 SF-CAS              70:       -10.9469916098    15.8575    30.0000
 SF-CAS              71:       -10.9465651157    15.8691    30.0000
 SF-CAS              72:       -10.9461511492    15.8804    30.0000
 SF-CAS              73:       -10.9429359075    15.9679    30.0000
 SF-CAS              74:       -10.9423476298    15.9839    30.0000
 SF-CAS              75:       -10.9402208474    16.0418    30.0000
 SF-CAS              76:       -10.9390796782    16.0728    30.0000
 SF-CAS              77:       -10.9385987846    16.0859    30.0000
 SF-CAS              78:       -10.9375614700    16.1141    30.0000
 SF-CAS              79:       -10.9372780670    16.1219    30.0000
 SF-CAS              80:       -10.9358089192    16.1618    30.0000
 SF-CAS              81:       -10.9336008037    16.2219    30.0000
 SF-CAS              82:       -10.9325122820    16.2515    30.0000
 SF-CAS              83:       -10.9313098891    16.2843    30.0000
 SF-CAS              84:       -10.9286313576    16.3571    30.0000
 SF-CAS              85:       -10.9278162249    16.3793    30.0000
 SF-CAS              86:       -10.9270013858    16.4015    30.0000
 SF-CAS              87:       -10.9263332771    16.4197    30.0000
 SF-CAS              88:       -10.9246328556    16.4660    30.0000
 SF-CAS              89:       -10.9240815370    16.4810    30.0000
 SF-CAS              90:       -10.9228879573    16.5134    30.0000
 SF-CAS              91:       -10.9210277186    16.5641    30.0000
 SF-CAS              92:       -10.9205331025    16.5775    30.0000
 SF-CAS              93:       -10.9192841042    16.6115    30.0000
 SF-CAS              94:       -10.9181562042    16.6422    30.0000
 SF-CAS              95:       -10.9169556906    16.6749    30.0000
 SF-CAS              96:       -10.9168341907    16.6782    30.0000
 SF-CAS              97:       -10.9160042762    16.7008    30.0000
 SF-CAS              98:       -10.9157351314    16.7081    30.0000
 SF-CAS              99:       -10.9143995814    16.7444    30.0000
 SF-CAS             100:       -10.9116707256    16.8187    30.0000
 SF-CAS             101:       -10.9105661375    16.8487    30.0000
 SF-CAS             102:       -10.9104145751    16.8529    30.0000
 SF-CAS             103:       -10.9100981765    16.8615    30.0000
 SF-CAS             104:       -10.9073011276    16.9376    30.0000
 SF-CAS             105:       -10.9069154552    16.9481    30.0000
 SF-CAS             106:       -10.9063475258    16.9635    30.0000
 SF-CAS             107:       -10.9049849006    17.0006    30.0000
 SF-CAS             108:       -10.9042148972    17.0216    30.0000
 SF-CAS             109:       -10.9028013685    17.0600    30.0000
 SF-CAS             110:       -10.9019428580    17.0834    30.0000
 SF-CAS             111:       -10.9001252010    17.1328    30.0000
 SF-CAS             112:       -10.8994764656    17.1505    30.0000
 SF-CAS             113:       -10.8955686121    17.2568    30.0000
 SF-CAS             114:       -10.8942850256    17.2918    30.0000
 SF-CAS             115:       -10.8923351208    17.3448    30.0000
 SF-CAS             116:       -10.8896153419    17.4188    30.0000
 SF-CAS             117:       -10.8868691561    17.4936    30.0000
 SF-CAS             118:       -10.8862835016    17.5095    30.0000
 SF-CAS             119:       -10.8856926073    17.5256    30.0000
 SF-CAS             120:       -10.8849249444    17.5465    30.0000
 SF-CAS             121:       -10.8840601368    17.5700    30.0000
 SF-CAS             122:       -10.8829456183    17.6003    30.0000
 SF-CAS             123:       -10.8818633724    17.6298    30.0000
 SF-CAS             124:       -10.8816172514    17.6365    30.0000
 SF-CAS             125:       -10.8790866292    17.7053    30.0000
 SF-CAS             126:       -10.8756772715    17.7981    30.0000
 SF-CAS             127:       -10.7141019759    22.1948    30.0000
 SF-CAS             128:       -10.7061285317    22.4118    30.0000
 SF-CAS             129:       -10.7004240871    22.5670    30.0000
 SF-CAS             130:       -10.6991981360    22.6004    30.0000
 SF-CAS             131:       -10.6976490306    22.6426    30.0000
 SF-CAS             132:       -10.6921685034    22.7917    30.0000
 SF-CAS             133:       -10.6849926996    22.9870    30.0000
 SF-CAS             134:       -10.6827633027    23.0476    30.0000
 SF-CAS             135:       -10.6783072100    23.1689    30.0000
 SF-CAS             136:       -10.6768766699    23.2078    30.0000
 SF-CAS             137:       -10.6736340994    23.2960    30.0000
 SF-CAS             138:       -10.6714119135    23.3565    30.0000
 SF-CAS             139:       -10.6704269002    23.3833    30.0000
 SF-CAS             140:       -10.6693407383    23.4129    30.0000
 SF-CAS             141:       -10.6638618669    23.5620    30.0000
 SF-CAS             142:       -10.6619858952    23.6130    30.0000
 SF-CAS             143:       -10.6586350036    23.7042    30.0000
 SF-CAS             144:       -10.6479641695    23.9946    30.0000
 ===================================================================

              Active Space Coefficients > 0.20
 -------------------------------------------------------------------
 State  1                       Configuration         Coeff.   <S^2>
 -------------------------------------------------------------------
                  11111111111_ | ___________1      -0.657359  31.000
                  11111111_111 | ________1___      -0.292295  31.000
                  111111_11111 | ______1_____      -0.207682  31.000
                  111_11111111 | ___1________       0.211648  31.000
                  11_111111111 | __1_________       0.340050  31.000
                  _11111111111 | 1___________      -0.238684  31.000
 -------------------------------------------------------------------
 State  2                       Configuration         Coeff.   <S^2>
 -------------------------------------------------------------------
                  1111111111_1 | __________1_      -0.648314  31.000
                  1111111_1111 | _______1____      -0.312441  31.000
                  11111_111111 | _____1______      -0.319299  31.000
                  1111_1111111 | ____1_______       0.274340  31.000
                  11_111111111 | __1_________      -0.234942  31.000
 -------------------------------------------------------------------
 State  3                       Configuration         Coeff.   <S^2>
 -------------------------------------------------------------------
                  11111111111_ | ___________1      -0.288839  31.000
                  11111_111111 | _____1______      -0.386456  31.000
                  1111_1111111 | ____1_______      -0.325912  31.000
                  11_111111111 | __1_________      -0.638852  31.000
 -------------------------------------------------------------------
 State  4                       Configuration         Coeff.   <S^2>
 -------------------------------------------------------------------
                  11111111111_ | ___________1      -0.286297  31.000
                  11111111_111 | ________1___       0.275522  31.000
                  111111_11111 | ______1_____      -0.253821  31.000
                  11111_111111 | _____1______       0.387070  31.000
                  1111_1111111 | ____1_______       0.368942  31.000
                  111_11111111 | ___1________      -0.301937  31.000
                  _11111111111 | 1___________      -0.398335  31.000
 -------------------------------------------------------------------
 State  5                       Configuration         Coeff.   <S^2>
 -------------------------------------------------------------------
                  1111111111_1 | __________1_      -0.347463  31.000
                  111111111_11 | _________1__      -0.266827  31.000
                  1111111_1111 | _______1____      -0.249615  31.000
                  11111_111111 | _____1______       0.346181  31.000
                  1111_1111111 | ____1_______      -0.484976  31.000
                  111_11111111 | ___1________      -0.340271  31.000
                  _11111111111 | 1___________       0.217364  31.000
 -------------------------------------------------------------------
 State  6                       Configuration         Coeff.   <S^2>
 -------------------------------------------------------------------
                  111111111_11 | _________1__      -0.256233  31.000
                  11111111_111 | ________1___       0.599192  31.000
                  111_11111111 | ___1________       0.596658  31.000
 -------------------------------------------------------------------
 State  7                       Configuration         Coeff.   <S^2>
 -------------------------------------------------------------------
                  111111111_11 | _________1__      -0.617990  31.000
                  11111111_111 | ________1___      -0.295531  31.000
                  1111111_1111 | _______1____       0.259940  31.000
                  11111_111111 | _____1______      -0.283670  31.000
                  1_1111111111 | _1__________       0.434077  31.000
 -------------------------------------------------------------------
 State  8                       Configuration         Coeff.   <S^2>
 -------------------------------------------------------------------
                  111111111_11 | _________1__       0.239088  31.000
                  1111111_1111 | _______1____      -0.616696  31.000
                  1_1111111111 | _1__________       0.570213  31.000
 -------------------------------------------------------------------
 State  9                       Configuration         Coeff.   <S^2>
 -------------------------------------------------------------------
                  111111_11111 | ______1_____       0.698026  31.000
                  _11111111111 | 1___________      -0.570928  31.000
 -------------------------------------------------------------------
 State  10                      Configuration         Coeff.   <S^2>
 -------------------------------------------------------------------
                  11111111111_ | ___________1      -0.336443  31.000
                  11111111_111 | ________1___      -0.345655  31.000
                  111111_11111 | ______1_____       0.359333  31.000
                  11111_111111 | _____1______       0.353967  31.000
                  1111_1111111 | ____1_______       0.356346  31.000
                  111_11111111 | ___1________       0.348016  31.000
                  11_111111111 | __1_________      -0.362318  31.000
                  _11111111111 | 1___________       0.359362  31.000
 -------------------------------------------------------------------
 State  11                      Configuration         Coeff.   <S^2>
 -------------------------------------------------------------------
                  11111111111_ | ___________1       0.203435  31.000
                  1111111111_1 | __________1_       0.400065  31.000
                  111111111_11 | _________1__      -0.409337  31.000
                  11111111_111 | ________1___      -0.205722  31.000
                  1111111_1111 | _______1____      -0.411257  31.000
                  111111_11111 | ______1_____      -0.205399  31.000
                  1111_1111111 | ____1_______      -0.200102  31.000
                  111_11111111 | ___1________       0.205806  31.000
                  11_111111111 | __1_________      -0.205780  31.000
                  1_1111111111 | _1__________      -0.410891  31.000
                  _11111111111 | 1___________      -0.205464  31.000
 -------------------------------------------------------------------
 State  12                      Configuration         Coeff.   <S^2>
 -------------------------------------------------------------------
                  11111111111_ | ___________1      -0.288675  31.000
                  1111111111_1 | __________1_       0.288675  31.000
                  111111111_11 | _________1__      -0.288675  31.000
                  11111111_111 | ________1___       0.288675  31.000
                  1111111_1111 | _______1____      -0.288675  31.000
                  111111_11111 | ______1_____       0.288675  31.000
                  11111_111111 | _____1______      -0.288675  31.000
                  1111_1111111 | ____1_______       0.288675  31.000
                  111_11111111 | ___1________      -0.288675  31.000
                  11_111111111 | __1_________       0.288675  31.000
                  1_1111111111 | _1__________      -0.288675  31.000
                  _11111111111 | 1___________       0.288675  31.000
 -------------------------------------------------------------------
 State  13                      Configuration         Coeff.   <S^2>
 -------------------------------------------------------------------
                  11111111111_ | 1___________       0.298968  30.000
                  11111111111_ | ___1________      -0.248325  30.000
                  11111111111_ | ____1_______      -0.297421  30.000
                  11111111111_ | _____1______      -0.229833  30.000
                  11111111111_ | ______1_____      -0.298435  30.000
                  11111111111_ | ________1___      -0.249336  30.000
                  11_111111111 | ___1________       0.209540  30.000
                  11_111111111 | _____1______       0.251386  30.000
 -------------------------------------------------------------------
 State  14                      Configuration         Coeff.   <S^2>
 -------------------------------------------------------------------
                  1111111111_1 | _1__________      -0.200988  30.000
                  1111111111_1 | _______1____      -0.203204  30.000
                  1111111111_1 | _________1__       0.207888  30.000
                  11111_111111 | ___1________      -0.219181  30.000
                  11111_111111 | ________1___      -0.217405  30.000
                  1111_1111111 | 1___________      -0.277110  30.000
                  1111_1111111 | ____1_______      -0.201521  31.000
                  1111_1111111 | ______1_____       0.300458  30.000
                  1111_1111111 | ___________1       0.316019  30.000
 -------------------------------------------------------------------
 State  15                      Configuration         Coeff.   <S^2>
 -------------------------------------------------------------------
                  11111111111_ | ____1_______      -0.304021  30.000
                  11111111111_ | ______1_____      -0.214172  30.000
                  111111_11111 | 1___________       0.215779  30.000
                  1111_1111111 | ___________1       0.216498  30.000
                  11_111111111 | ___1________      -0.298786  30.000
                  11_111111111 | _____1______      -0.296931  30.000
                  11_111111111 | ________1___      -0.293467  30.000
                  _11111111111 | ______1_____       0.277776  30.000
 -------------------------------------------------------------------
 State  16                      Configuration         Coeff.   <S^2>
 -------------------------------------------------------------------
                  111111_11111 | 1___________       0.310693  30.000
                  111111_11111 | ____1_______      -0.405941  30.000
                  111111_11111 | ______1_____       0.257958  31.000
                  111111_11111 | ___________1      -0.442968  30.000
                  _11111111111 | 1___________      -0.208662  31.000
                  _11111111111 | ____1_______      -0.367743  30.000
                  _11111111111 | ______1_____      -0.204216  30.000
                  _11111111111 | ___________1      -0.369426  30.000
 -------------------------------------------------------------------
 State  17                      Configuration         Coeff.   <S^2>
 -------------------------------------------------------------------
                  1111111111_1 | _________1__       0.222516  30.000
                  11111111_111 | ___1________      -0.236089  30.000
                  11111_111111 | __1_________       0.283701  30.000
                  11111_111111 | ___1________      -0.235932  30.000
                  11111_111111 | ________1___      -0.211213  30.000
                  1111_1111111 | 1___________       0.249413  30.000
                  1111_1111111 | ______1_____      -0.265275  30.000
                  1111_1111111 | ___________1      -0.253693  30.000
 -------------------------------------------------------------------
 State  18                      Configuration         Coeff.   <S^2>
 -------------------------------------------------------------------
                  1111111111_1 | _1__________      -0.337625  30.000
                  1111111111_1 | _______1____      -0.286451  30.000
                  1111111111_1 | _________1__       0.307192  30.000
                  1111111111_1 | __________1_      -0.206107  31.000
                  11111111_111 | __1_________      -0.246967  30.000
                  11111111_111 | ___1________       0.235132  30.000
                  1111111_1111 | _________1__      -0.228717  30.000
                  11111_111111 | __1_________      -0.264699  30.000
                  11111_111111 | ___1________       0.284379  30.000
                  11111_111111 | ________1___       0.210055  30.000
 -------------------------------------------------------------------
 State  19                      Configuration         Coeff.   <S^2>
 -------------------------------------------------------------------
                  111111111_11 | _1__________      -0.424170  30.000
                  111111111_11 | _______1____      -0.330948  30.000
                  111111111_11 | _________1__      -0.263558  31.000
                  111111111_11 | __________1_       0.428297  30.000
                  1111111_1111 | _1__________      -0.346018  30.000
                  1111111_1111 | __________1_       0.357350  30.000
 -------------------------------------------------------------------
 State  20                      Configuration         Coeff.   <S^2>
 -------------------------------------------------------------------
                  11111111_111 | __1_________       0.326422  30.000
                  11111111_111 | _____1______      -0.364528  30.000
                  11111_111111 | ________1___       0.210301  30.000
                  111_11111111 | __1_________       0.430573  30.000
                  111_11111111 | ___1________       0.260119  31.000
                  111_11111111 | _____1______      -0.407832  30.000
                  111_11111111 | ________1___      -0.333605  30.000
 -------------------------------------------------------------------
 State  21                      Configuration         Coeff.   <S^2>
 -------------------------------------------------------------------
                  111111111_11 | _______1____      -0.227463  30.000
                  1111111_1111 | _________1__      -0.304340  30.000
                  1111111_1111 | __________1_      -0.287212  30.000
                  1_1111111111 | _1__________       0.282391  31.000
                  1_1111111111 | _______1____      -0.386939  30.000
                  1_1111111111 | _________1__       0.424528  30.000
                  1_1111111111 | __________1_       0.457602  30.000
 -------------------------------------------------------------------
 State  22                      Configuration         Coeff.   <S^2>
 -------------------------------------------------------------------
                  11111111111_ | __1_________       0.325729  30.000
                  11111111111_ | ___1________      -0.404588  30.000
                  11111111111_ | _____1______      -0.380540  30.000
                  11111111111_ | ________1___      -0.411125  30.000
 -------------------------------------------------------------------
 State  23                      Configuration         Coeff.   <S^2>
 -------------------------------------------------------------------
                  1111111111_1 | 1___________      -0.261510  30.000
                  1111111111_1 | ____1_______       0.339491  30.000
                  1111111111_1 | ______1_____       0.276180  30.000
                  1111111111_1 | ___________1       0.345780  30.000
                  11111_111111 | 1___________       0.203946  30.000
                  11111_111111 | ____1_______      -0.227008  30.000
                  11111_111111 | ______1_____      -0.206741  30.000
                  11111_111111 | ___________1      -0.277055  30.000
 -------------------------------------------------------------------
 State  24                      Configuration         Coeff.   <S^2>
 -------------------------------------------------------------------
                  11111111_111 | 1___________       0.322171  30.000
                  11111111_111 | ____1_______      -0.327279  30.000
                  11111111_111 | ______1_____      -0.335594  30.000
                  11111111_111 | ___________1      -0.464736  30.000
                  111_11111111 | 1___________       0.299081  30.000
                  111_11111111 | ____1_______      -0.293761  30.000
                  111_11111111 | ______1_____      -0.287141  30.000
                  111_11111111 | ___________1      -0.409809  30.000
 -------------------------------------------------------------------
 State  25                      Configuration         Coeff.   <S^2>
 -------------------------------------------------------------------
                  1111111111_1 | _____1______      -0.222360  30.000
                  11111_111111 | _1__________      -0.238846  30.000
                  11111_111111 | _______1____      -0.229009  30.000
                  11111_111111 | _________1__       0.274423  30.000
                  11111_111111 | __________1_       0.315883  30.000
 -------------------------------------------------------------------
 State  26                      Configuration         Coeff.   <S^2>
 -------------------------------------------------------------------
                  11111111111_ | _1__________      -0.228205  30.000
                  11111111111_ | _______1____      -0.213026  30.000
                  11111111111_ | _________1__       0.217425  30.000
                  11111111111_ | __________1_       0.275539  30.000
                  1111_1111111 | _1__________      -0.331359  30.000
                  1111_1111111 | _______1____      -0.300814  30.000
                  1111_1111111 | _________1__       0.294607  30.000
                  1111_1111111 | __________1_       0.399877  30.000
 -------------------------------------------------------------------
 State  27                      Configuration         Coeff.   <S^2>
 -------------------------------------------------------------------
                  1111111111_1 | __1_________       0.206779  30.000
                  1111111111_1 | ___1________      -0.216046  30.000
                  1111111111_1 | _____1______      -0.273731  30.000
                  1111111111_1 | ________1___      -0.222692  30.000
                  11111_111111 | _1__________       0.245848  30.000
                  11111_111111 | _______1____       0.239791  30.000
                  11111_111111 | _________1__      -0.289730  30.000
                  11111_111111 | __________1_      -0.291822  30.000
                  11111_111111 | ___________1       0.204904  30.000
 -------------------------------------------------------------------
 State  28                      Configuration         Coeff.   <S^2>
 -------------------------------------------------------------------
                  1111111111_1 | 1___________      -0.205353  30.000
                  1111111111_1 | ____1_______       0.271881  30.000
                  1111111111_1 | _____1______       0.216377  30.000
                  1111111111_1 | ______1_____       0.218430  30.000
                  1111111111_1 | ___________1       0.210263  30.000
                  111_11111111 | ___________1      -0.204071  30.000
 -------------------------------------------------------------------
 State  29                      Configuration         Coeff.   <S^2>
 -------------------------------------------------------------------
                  11111111111_ | _1__________      -0.236707  30.000
                  11111111111_ | _______1____      -0.224321  30.000
                  11111111111_ | _________1__       0.231735  30.000
                  11111111111_ | __________1_       0.290397  30.000
                  111111_11111 | _1__________      -0.215868  30.000
                  111111_11111 | _______1____      -0.207277  30.000
                  111111_11111 | _________1__       0.205445  30.000
                  111111_11111 | __________1_       0.257658  30.000
                  1111_1111111 | _1__________       0.205312  30.000
                  1111_1111111 | __________1_      -0.246883  30.000
 -------------------------------------------------------------------
 State  30                      Configuration         Coeff.   <S^2>
 -------------------------------------------------------------------
                  111111111_11 | __1_________      -0.253193  30.000
                  111111111_11 | ___1________       0.274368  30.000
                  111111111_11 | _____1______       0.342569  30.000
                  111111111_11 | ________1___       0.274623  30.000
                  111111111_11 | ___________1      -0.236231  30.000
                  1_1111111111 | ___1________       0.221958  30.000
                  1_1111111111 | _____1______       0.255970  30.000
                  1_1111111111 | ________1___       0.220028  30.000
                  1_1111111111 | ___________1      -0.212722  30.000
 -------------------------------------------------------------------
 State  31                      Configuration         Coeff.   <S^2>
 -------------------------------------------------------------------
                  111111_11111 | __1_________      -0.310696  30.000
                  111111_11111 | ___1________       0.360930  30.000
                  111111_11111 | _____1______       0.351147  30.000
                  111111_11111 | ________1___       0.380882  30.000
                  _11111111111 | __1_________      -0.271219  30.000
                  _11111111111 | ___1________       0.328951  30.000
                  _11111111111 | _____1______       0.307649  30.000
                  _11111111111 | ________1___       0.320457  30.000
 -------------------------------------------------------------------
 State  32                      Configuration         Coeff.   <S^2>
 -------------------------------------------------------------------
                  1111_1111111 | ___1________       0.200111  30.000
                  11_111111111 | 1___________      -0.227005  30.000
                  11_111111111 | ____1_______       0.232718  30.000
                  11_111111111 | ______1_____       0.227755  30.000
                  11_111111111 | ___________1       0.271545  30.000
 -------------------------------------------------------------------
 State  33                      Configuration         Coeff.   <S^2>
 -------------------------------------------------------------------
                  1111111_1111 | ____1_______       0.204064  30.000
                  1111111_1111 | ___________1       0.221089  30.000
                  11_111111111 | 1___________      -0.231816  30.000
                  11_111111111 | ____1_______       0.234088  30.000
                  11_111111111 | ______1_____       0.232002  30.000
                  11_111111111 | ___________1       0.275469  30.000
                  1_1111111111 | ____1_______      -0.240618  30.000
                  1_1111111111 | ___________1      -0.218001  30.000
 -------------------------------------------------------------------
 State  34                      Configuration         Coeff.   <S^2>
 -------------------------------------------------------------------
                  1111111111_1 | _____1______       0.214162  30.000
                  1111_1111111 | __1_________      -0.229468  30.000
                  1111_1111111 | ___1________       0.273789  30.000
                  1111_1111111 | _____1______       0.264828  30.000
                  1111_1111111 | ________1___       0.271973  30.000
 -------------------------------------------------------------------
 State  35                      Configuration         Coeff.   <S^2>
 -------------------------------------------------------------------
                  11111111_111 | _1__________      -0.316549  30.000
                  11111111_111 | _______1____      -0.312733  30.000
                  11111111_111 | _________1__       0.340180  30.000
                  11111111_111 | __________1_       0.376010  30.000
                  111_11111111 | _1__________      -0.327372  30.000
                  111_11111111 | _______1____      -0.312933  30.000
                  111_11111111 | _________1__       0.346747  30.000
                  111_11111111 | __________1_       0.373492  30.000
 -------------------------------------------------------------------
 State  36                      Configuration         Coeff.   <S^2>
 -------------------------------------------------------------------
                  111111_11111 | _1__________      -0.324633  30.000
                  111111_11111 | _______1____      -0.315051  30.000
                  111111_11111 | _________1__       0.308083  30.000
                  111111_11111 | __________1_       0.369289  30.000
                  _11111111111 | _1__________      -0.339087  30.000
                  _11111111111 | _______1____      -0.319416  30.000
                  _11111111111 | _________1__       0.318127  30.000
                  _11111111111 | __________1_       0.369997  30.000
 -------------------------------------------------------------------
 State  37                      Configuration         Coeff.   <S^2>
 -------------------------------------------------------------------
                  111111111_11 | 1___________       0.291227  30.000
                  111111111_11 | ____1_______      -0.335971  30.000
                  111111111_11 | ______1_____      -0.296249  30.000
                  111111111_11 | ___________1      -0.301120  30.000
                  1_1111111111 | __1_________       0.226360  30.000
                  1_1111111111 | ___1________      -0.226699  30.000
                  1_1111111111 | _____1______      -0.264686  30.000
                  1_1111111111 | ________1___      -0.222329  30.000
 -------------------------------------------------------------------
 State  38                      Configuration         Coeff.   <S^2>
 -------------------------------------------------------------------
                  1111111_1111 | 1___________       0.239745  30.000
                  1111111_1111 | __1_________       0.302862  30.000
                  1111111_1111 | ___1________      -0.293402  30.000
                  1111111_1111 | ____1_______      -0.284684  30.000
                  1111111_1111 | _____1______      -0.347442  30.000
                  1111111_1111 | ______1_____      -0.249207  30.000
                  1111111_1111 | ________1___      -0.297017  30.000
                  1111111_1111 | ___________1      -0.202711  30.000
                  1_1111111111 | __1_________      -0.213974  30.000
                  1_1111111111 | ___1________       0.220379  30.000
                  1_1111111111 | _____1______       0.250109  30.000
                  1_1111111111 | ________1___       0.216545  30.000
 -------------------------------------------------------------------
 State  39                      Configuration         Coeff.   <S^2>
 -------------------------------------------------------------------
                  11111111111_ | _1__________      -0.202656  30.000
                  11111111111_ | __________1_       0.252754  30.000
                  11_111111111 | _1__________      -0.326033  30.000
                  11_111111111 | _______1____      -0.320746  30.000
                  11_111111111 | _________1__       0.359666  30.000
                  11_111111111 | __________1_       0.368371  30.000
 -------------------------------------------------------------------
 State  40                      Configuration         Coeff.   <S^2>
 -------------------------------------------------------------------
                  11111111_111 | __1_________      -0.219350  30.000
                  11111111_111 | ___1________      -0.392550  30.000
                  11111111_111 | _____1______       0.225821  30.000
                  11111_111111 | __1_________      -0.381655  30.000
                  11111_111111 | ___1________      -0.210604  30.000
                  11111_111111 | ________1___      -0.226703  30.000
                  111_11111111 | __1_________       0.220074  30.000
                  111_11111111 | ________1___       0.351402  30.000
                  11_111111111 | ___1________      -0.227512  30.000
                  11_111111111 | _____1______       0.348668  30.000
 -------------------------------------------------------------------
 State  41                      Configuration         Coeff.   <S^2>
 -------------------------------------------------------------------
                  1111111111_1 | _1__________       0.286661  30.000
                  1111111111_1 | _________1__       0.433638  30.000
                  111111111_11 | _______1____      -0.225467  30.000
                  111111111_11 | __________1_      -0.331193  30.000
                  1111111_1111 | _1__________      -0.389024  30.000
                  1111111_1111 | _________1__      -0.273628  30.000
                  1_1111111111 | _______1____      -0.372034  30.000
                  1_1111111111 | __________1_      -0.214536  30.000
 -------------------------------------------------------------------
 State  42                      Configuration         Coeff.   <S^2>
 -------------------------------------------------------------------
                  11111111_111 | __1_________       0.309205  30.000
                  11111111_111 | _____1______       0.298836  30.000
                  11111_111111 | ___1________       0.357317  30.000
                  11111_111111 | ________1___      -0.333148  30.000
                  111_11111111 | __1_________       0.284253  30.000
                  111_11111111 | _____1______       0.298540  30.000
                  11_111111111 | ___1________      -0.338752  30.000
                  11_111111111 | ________1___       0.339939  30.000
 -------------------------------------------------------------------
 State  43                      Configuration         Coeff.   <S^2>
 -------------------------------------------------------------------
                  11111111111_ | 1___________       0.224340  30.000
                  11111111111_ | ____1_______       0.344367  30.000
                  1111111111_1 | _______1____       0.349095  30.000
                  111111111_11 | _1__________      -0.319695  30.000
                  1111111_1111 | __________1_      -0.246833  30.000
                  111111_11111 | 1___________       0.233310  30.000
                  111111_11111 | ____1_______       0.208264  30.000
                  1_1111111111 | _________1__      -0.281890  30.000
                  _11111111111 | ______1_____       0.228372  30.000
 -------------------------------------------------------------------
 State  44                      Configuration         Coeff.   <S^2>
 -------------------------------------------------------------------
                  11111111111_ | 1___________      -0.225821  30.000
                  11111111111_ | ____1_______      -0.361757  30.000
                  1111111111_1 | _1__________      -0.306154  30.000
                  1111111111_1 | _______1____       0.289555  30.000
                  111111111_11 | _1__________      -0.256366  30.000
[...]
   697     3223.10675635    31134.31138588       12.00000000      cm-1
   698     3224.02285935    31135.22748889        2.00000000      cm-1
   699     3225.96229279    31137.16692232       12.00000000      cm-1
   700     3226.73554752    31137.94017706       20.00000000      cm-1
   701     3226.78984480    31137.99447434        6.00000000      cm-1
   702     3230.67507000    31141.87969953       12.00000000      cm-1
   703     3231.67162308    31142.87625261        6.00000000      cm-1
   704     3236.67572813    31147.88035767        6.00000000      cm-1
   705     3240.93806779    31152.14269732       12.00000000      cm-1
   706     3241.10936682    31152.31399636       20.00000000      cm-1
   707     3243.12603382    31154.33066335        6.00000000      cm-1
   708     3247.55800263    31158.76263216       12.00000000      cm-1
   709     3249.05185626    31160.25648580        6.00000000      cm-1
   710     3253.30496611    31164.50959565        6.00000000      cm-1
   711     3257.19861234    31168.40324188       12.00000000      cm-1
   712     3259.51593511    31170.72056464        6.00000000      cm-1
   713     3261.55937115    31172.76400068        2.00000000      cm-1
   714     3264.16828783    31175.37291736       12.00000000      cm-1
   715     3267.49856212    31178.70319165       20.00000000      cm-1
   716     3271.32808310    31182.53271264        6.00000000      cm-1
   717     3271.51658417    31182.72121370        0.00000000      cm-1
   718     3273.80721935    31185.01184889       12.00000000      cm-1
   719     3274.12613977    31185.33076930        6.00000000      cm-1
   720     3277.59718214    31188.80181167       12.00000000      cm-1
   721     3278.26904375    31189.47367329        2.00000000      cm-1
   722     3283.73362124    31194.93825077       12.00000000      cm-1
   723     3283.99212166    31195.19675119        6.00000000      cm-1
   724     3285.54609261    31196.75072214       12.00000000      cm-1
   725     3289.06197300    31200.26660254        6.00000000      cm-1
   726     3289.90552104    31201.11015058       20.00000000      cm-1
   727     3290.40162563    31201.60625517       12.00000000      cm-1
   728     3291.08606855    31202.29069809        2.00000000      cm-1
   729     3294.34360947    31205.54823900        6.00000000      cm-1
   730     3298.23612118    31209.44075072        2.00000000      cm-1
   731     3300.44732487    31211.65195441       12.00000000      cm-1
   732     3303.02968266    31214.23431220        6.00000000      cm-1
   733     3303.55139588    31214.75602541       12.00000000      cm-1
   734     3304.08530413    31215.28993367        0.00000000      cm-1
   735     3305.37920804    31216.58383757       20.00000000      cm-1
   736     3314.62438562    31225.82901516        6.00000000      cm-1
   737     3315.73209067    31226.93672020       12.00000000      cm-1
   738     3322.85393698    31234.05856652       20.00000000      cm-1
   739     3332.25269119    31243.45732073       20.00000000      cm-1
   740     3332.78509182    31243.98972135       12.00000000      cm-1
   741     3336.57684764    31247.78147717        6.00000000      cm-1
   742     3339.57552251    31250.78015205       12.00000000      cm-1
   743     3341.16836341    31252.37299295       12.00000000      cm-1
   744     3342.06459941    31253.26922894       20.00000000      cm-1
   745     3343.00985444    31254.21448398       20.00000000      cm-1
   746     3347.91833998    31259.12296951       12.00000000      cm-1
   747     3351.80151443    31263.00614396        6.00000000      cm-1
   748     3357.51169608    31268.71632561       20.00000000      cm-1
   749     3361.56322874    31272.76785827       20.00000000      cm-1
   750     3367.52279335    31278.72742288        6.00000000      cm-1
   751     3368.95016322    31280.15479275       12.00000000      cm-1
   752     3369.93476348    31281.13939301       20.00000000      cm-1
   753     3373.66293591    31284.86756544       20.00000000      cm-1
   754     3391.33538340    31302.54001293       20.00000000      cm-1
   755     3403.41633571    31314.62096525       20.00000000      cm-1
   756     3426.06468588    31337.26931541       20.00000000      cm-1
   757     3430.28262086    31341.48725039       20.00000000      cm-1
   758     8778.07560742    36689.28023696       -0.00000000      cm-1
   759     8841.41361350    36752.61824303        2.00000000      cm-1
   760     8889.58923201    36800.79386155        0.00000000      cm-1
   761     8953.00790921    36864.21253874        2.00000000      cm-1
   762     8966.42794976    36877.63257930        6.00000000      cm-1
   763     9039.14057580    36950.34520533        0.00000000      cm-1
   764     9051.83544235    36963.04007189       -0.00000000      cm-1
   765     9058.85675736    36970.06138689        2.00000000      cm-1
   766     9069.98482339    36981.18945292        2.00000000      cm-1
   767     9078.18441392    36989.38904346        6.00000000      cm-1
   768     9098.11584862    37009.32047815        6.00000000      cm-1
   769     9106.11725579    37017.32188533        6.00000000      cm-1
   770     9149.99963651    37061.20426604       12.00000000      cm-1
   771     9156.57790342    37067.78253296       12.00000000      cm-1
   772     9159.90825352    37071.11288306       12.00000000      cm-1
   773     9174.47008929    37085.67471882        0.00000000      cm-1
   774     9193.76842525    37104.97305479        2.00000000      cm-1
   775     9230.88094637    37142.08557591       20.00000000      cm-1
   776     9232.19544091    37143.40007044        6.00000000      cm-1
   777     9233.75853339    37144.96316292       20.00000000      cm-1
   778     9241.41323590    37152.61786543       -0.00000000      cm-1
   779     9260.27585258    37171.48048212        2.00000000      cm-1
   780     9262.00129642    37173.20592595       12.00000000      cm-1
   781     9289.41902565    37200.62365519       12.00000000      cm-1
   782     9297.83623529    37209.04086482        6.00000000      cm-1
   783     9353.77179592    37264.97642545       12.00000000      cm-1
   784     9364.95834749    37276.16297702       20.00000000      cm-1
   785     9387.90350582    37299.10813535       20.00000000      cm-1
   786     9427.61572015    37338.82034969       20.00000000      cm-1
   787     9500.23527607    37411.43990560       20.00000000      cm-1
   788    14813.01806686    42724.22269640        2.00000000      cm-1
   789    14847.45849430    42758.66312384        6.00000000      cm-1
   790    14896.14620903    42807.35083856       12.00000000      cm-1
   791    14911.43523596    42822.63986550        2.00000000      cm-1
   792    14968.32071271    42879.52534225       -0.00000000      cm-1
   793    14968.41490106    42879.61953060        6.00000000      cm-1
   794    14969.09358484    42880.29821438        2.00000000      cm-1
   795    14978.18419022    42889.38881976        0.00000000      cm-1
   796    14986.16369140    42897.36832093        2.00000000      cm-1
   797    14987.89477058    42899.09940012        2.00000000      cm-1
   798    14990.35873518    42901.56336472        0.00000000      cm-1
   799    15010.10541802    42921.31004755        2.00000000      cm-1
   800    15015.65247717    42926.85710670        2.00000000      cm-1
   801    15020.83735469    42932.04198423        6.00000000      cm-1
   802    15029.71719260    42940.92182213        2.00000000      cm-1
   803    15036.36330362    42947.56793316        2.00000000      cm-1
   804    15046.50553367    42957.71016320        6.00000000      cm-1
   805    15046.69385784    42957.89848738        2.00000000      cm-1
   806    15055.81984468    42967.02447422       12.00000000      cm-1
   807    15058.26205365    42969.46668319        6.00000000      cm-1
   808    15071.59179714    42982.79642668        2.00000000      cm-1
   809    15073.47544091    42984.68007045        6.00000000      cm-1
   810    15077.35517234    42988.55980187       12.00000000      cm-1
   811    15080.57621600    42991.78084554        2.00000000      cm-1
   812    15081.27630525    42992.48093478        6.00000000      cm-1
   813    15084.25137577    42995.45600530       -0.00000000      cm-1
   814    15084.72116816    42995.92579769       12.00000000      cm-1
   815    15100.97135285    43012.17598238        2.00000000      cm-1
   816    15111.45832439    43022.66295392        6.00000000      cm-1
   817    15125.67513951    43036.87976904        6.00000000      cm-1
   818    15135.65497311    43046.85960264       12.00000000      cm-1
   819    15149.01097333    43060.21560287        6.00000000      cm-1
   820    15155.16757263    43066.37220217        0.00000000      cm-1
   821    15158.89911856    43070.10374809        2.00000000      cm-1
   822    15162.24723993    43073.45186946       12.00000000      cm-1
   823    15163.71391518    43074.91854471       20.00000000      cm-1
   824    15171.70463087    43082.90926041        2.00000000      cm-1
   825    15181.42985822    43092.63448776        0.00000000      cm-1
   826    15186.16750585    43097.37213538        6.00000000      cm-1
   827    15196.78569880    43107.99032833        2.00000000      cm-1
   828    15201.87915568    43113.08378522        6.00000000      cm-1
   829    15217.31436605    43128.51899558       20.00000000      cm-1
   830    15223.24260949    43134.44723903        6.00000000      cm-1
   831    15227.68998390    43138.89461344        2.00000000      cm-1
   832    15229.60327353    43140.80790307       12.00000000      cm-1
   833    15232.30994707    43143.51457661        6.00000000      cm-1
   834    15242.50384194    43153.70847148        6.00000000      cm-1
   835    15246.62142526    43157.82605480       12.00000000      cm-1
   836    15252.96892670    43164.17355623        6.00000000      cm-1
   837    15256.31034890    43167.51497843        0.00000000      cm-1
   838    15260.79739898    43172.00202851       12.00000000      cm-1
   839    15270.90057418    43182.10520372       20.00000000      cm-1
   840    15283.64448322    43194.84911276        2.00000000      cm-1
   841    15293.12769762    43204.33232716       12.00000000      cm-1
   842    15302.39312319    43213.59775273       12.00000000      cm-1
   843    15313.50253366    43224.70716320       30.00000000      cm-1
   844    15315.11219967    43226.31682921       12.00000000      cm-1
   845    15317.09641389    43228.30104342        6.00000000      cm-1
   846    15322.10164055    43233.30627008        2.00000000      cm-1
   847    15332.13209014    43243.33671968       12.00000000      cm-1
   848    15358.49361844    43269.69824797       20.00000000      cm-1
   849    15364.56746836    43275.77209789       12.00000000      cm-1
   850    15367.73386343    43278.93849296        6.00000000      cm-1
   851    15367.87762146    43279.08225100       -0.00000000      cm-1
   852    15376.29884009    43287.50346962       20.00000000      cm-1
   853    15381.31966093    43292.52429046        2.00000000      cm-1
   854    15387.14571031    43298.35033984        2.00000000      cm-1
   855    15403.74400451    43314.94863404        6.00000000      cm-1
   856    15406.11706443    43317.32169397       12.00000000      cm-1
   857    15414.68879488    43325.89342442        2.00000000      cm-1
   858    15419.34891068    43330.55354022       20.00000000      cm-1
   859    15425.98715316    43337.19178270        6.00000000      cm-1
   860    15427.29637793    43338.50100746       12.00000000      cm-1
   861    15432.97774676    43344.18237630        6.00000000      cm-1
   862    15434.57384810    43345.77847764       12.00000000      cm-1
   863    15435.72508237    43346.92971190        0.00000000      cm-1
   864    15444.61684035    43355.82146988        2.00000000      cm-1
   865    15452.90071012    43364.10533966       12.00000000      cm-1
   866    15453.48940033    43364.69402987       20.00000000      cm-1
   867    15454.35767508    43365.56230462        2.00000000      cm-1
   868    15466.16902430    43377.37365383        6.00000000      cm-1
   869    15472.02371351    43383.22834305       12.00000000      cm-1
   870    15478.89887800    43390.10350754       20.00000000      cm-1
   871    15485.09654187    43396.30117140        6.00000000      cm-1
   872    15492.22570261    43403.43033214        6.00000000      cm-1
   873    15498.90689986    43410.11152940       12.00000000      cm-1
   874    15499.16965431    43410.37428384        2.00000000      cm-1
   875    15514.29170279    43425.49633232       20.00000000      cm-1
   876    15521.67452466    43432.87915419       30.00000000      cm-1
   877    15521.90527604    43433.10990558        2.00000000      cm-1
   878    15531.17578647    43442.38041601        6.00000000      cm-1
   879    15536.26599608    43447.47062562       20.00000000      cm-1
   880    15539.80043047    43451.00506000       12.00000000      cm-1
   881    15540.61918563    43451.82381516        2.00000000      cm-1
   882    15543.42814068    43454.63277021       12.00000000      cm-1
   883    15550.07856663    43461.28319617       12.00000000      cm-1
   884    15550.10924486    43461.31387439       20.00000000      cm-1
   885    15553.85482824    43465.05945778        6.00000000      cm-1
   886    15562.28194608    43473.48657561        6.00000000      cm-1
   887    15570.08970056    43481.29433010       12.00000000      cm-1
   888    15571.19870385    43482.40333339       20.00000000      cm-1
   889    15588.06179965    43499.26642918       12.00000000      cm-1
   890    15594.03585896    43505.24048849       20.00000000      cm-1
   891    15600.23388649    43511.43851602       12.00000000      cm-1
   892    15601.83562192    43513.04025146       20.00000000      cm-1
   893    15618.60555280    43529.81018234       20.00000000      cm-1
   894    15629.10254752    43540.30717705       30.00000000      cm-1
   895    15643.19858646    43554.40321600       20.00000000      cm-1
   896    15657.23173416    43568.43636369       20.00000000      cm-1
   897    15659.47901810    43570.68364763       30.00000000      cm-1
   898    15672.38785762    43583.59248715       12.00000000      cm-1
   899    15680.83894719    43592.04357673       20.00000000      cm-1
   900    15713.79247891    43624.99710845       30.00000000      cm-1
   901    15720.46355592    43631.66818546       30.00000000      cm-1
   902    15725.04873770    43636.25336723       30.00000000      cm-1
   903    15751.91378034    43663.11840988       30.00000000      cm-1
   904    15761.58888800    43672.79351753       30.00000000      cm-1
   905    27320.54030226    55231.74493180        6.00000000      cm-1
   906    27328.90914315    55240.11377268        2.00000000      cm-1
   907    27365.62260270    55276.82723224        6.00000000      cm-1
   908    27398.61735837    55309.82198791       -0.00000000      cm-1
   909    27417.21792892    55328.42255845        2.00000000      cm-1
   910    27421.22905715    55332.43368669       12.00000000      cm-1
   911    27454.37059723    55365.57522676        6.00000000      cm-1
   912    27509.97603944    55421.18066898       12.00000000      cm-1
   913    27545.35434685    55456.55897639        2.00000000      cm-1
   914    27582.91548040    55494.12010993        6.00000000      cm-1
   915    27583.88665969    55495.09128922       20.00000000      cm-1
   916    27639.00547593    55550.21010547       12.00000000      cm-1
   917    27713.32999597    55624.53462551       20.00000000      cm-1
   918    27746.41050880    55657.61513834        6.00000000      cm-1
   919    27803.22797387    55714.43260341       12.00000000      cm-1
   920    27805.50968349    55716.71431302       30.00000000      cm-1
   921    27878.41300071    55789.61763025       20.00000000      cm-1
   922    27971.50078537    55882.70541490       30.00000000      cm-1
   923    28081.93950481    55993.14413434       42.00000000      cm-1
 Analysis of SCF Wavefunction

 --------------------------------------------------------------

                    Orbital Energies (a.u.)
 --------------------------------------------------------------

 Alpha MOs
 -- Occupied --
 -0.914  -0.914  -0.516  -0.516  -0.516  -0.516  -0.516  -0.515
 -0.516  -0.516  -0.518  -0.515  -0.516  -0.516
 -- Virtual --
  0.953   1.007   1.044   0.933   0.910   1.236   1.184   1.026
  1.238   0.946   0.986   1.090   0.825   0.993

 Beta MOs
 -- Occupied --
 -0.914  -0.914
 -- Virtual --
  0.147   0.147   0.147   0.147   0.147   0.147   0.147   0.148
  0.148   0.149   0.147   0.148   1.117   1.167   1.212   1.101
  1.085   1.304   1.271   1.192   1.311   1.109   1.146   1.241
  1.004   1.149
 --------------------------------------------------------------

          Ground-State Mulliken Net Atomic Charges

     Atom                 Charge (a.u.)
  ----------------------------------------
      1 H                     0.000095
      2 H                     0.000010
      3 H                    -0.000009
      4 H                     0.000004
      5 H                    -0.000013
      6 H                     0.000008
      7 H                     0.000014
      8 H                    -0.000012
      9 H                     0.000067
     10 H                    -0.000026
     11 H                    -0.000067
     12 H                    -0.000070
     13 He                    0.000000
     14 He                   -0.000000
  ----------------------------------------
  Sum of atomic charges =    -0.000000

 -----------------------------------------------------------------
                    Cartesian Multipole Moments
 -----------------------------------------------------------------
    Charge (ESU x 10^10)
                 0.0000
    Dipole Moment (Debye)
         X      -0.0004      Y      -0.0005      Z       0.0002
       Tot       0.0007
    Quadrupole Moments (Debye-Ang)
        XX     -19.6088     XY       0.0141     YY     -19.5311
        XZ      -0.0001     YZ      -0.0051     ZZ     -19.5132
    Octopole Moments (Debye-Ang^2)
       XXX     -19.5115    XXY     -36.3120    XYY      -4.8383
       YYY    -111.5889    XXZ     -22.9202    XYZ      -0.0097
       YYZ     -23.8019    XZZ      -4.1138    YZZ     -36.2286
       ZZZ     -70.7103
    Hexadecapole Moments (Debye-Ang^3)
      XXXX   -1642.4767   XXXY     -14.0924   XXYY    -579.6142
      XYYY     -11.8356   YYYY   -1818.5245   XXXZ       3.4183
      XXYZ    -214.8561   XYYZ       0.0560   YYYZ    -654.2856
      XXZZ    -491.0314   XYZZ      -3.7851   YYZZ    -529.5510
      XZZZ       4.4602   YZZZ    -648.8521   ZZZZ   -1318.2280
 -----------------------------------------------------------------
 JobOver = TRUE
Archival summary:
1\1\sinatra\SP\ROProcedureUnspecified\6-31G*\e212()\nmayhall\MonMar2016:11:042017MonMar2016:11:042017\0\\#,ROProcedureUnspecified,6-31G*,\\0,13\H\H,1,1.8108\H,2,1.8111,1,60.0291\H,3,1.81133,2,60.0389,1,70.5227,0\H,1,2.837,2,152.386,3,178.05,0\H,5,1.8112,1,73.0863,2,-68.5028,0\H,6,1.81121,5,60.0005,1,-92.9521,0\H,7,1.81039,6,60.0315,5,-70.571,0\H,7,3.15582,6,123.844,5,98.0828,0\H,9,1.81065,7,138.39,6,162.988,0\H,9,1.81086,7,84.529,6,132.665,0\H,10,1.81131,9,60.0237,7,-105.967,0\He,10,14.307,9,123.356,7,32.6333,0\He,10,14.5407,9,123.498,7,144.969,0\\HF=-11.4715623\\@

 Total job time:  0.52s(wall), 0.52s(cpu) 
 Mon Mar 20 16:11:04 2017

        *************************************************************
        *                                                           *
        *  Thank you very much for using Q-Chem.  Have a nice day.  *
        *                                                           *
        *************************************************************


*** MISSION COMPLETED -- STARFLEET OUT ***

