                  Welcome to Q-Chem
     A Quantum Leap Into The Future Of Chemistry


 Q-Chem 4.3, Q-Chem, Inc., Pleasanton, CA (2015)

 Y. Shao,  Z. Gan,  E. Epifanovsky,  A. T. B. Gilbert,  M. Wormit,  
 J. Kussmann,  A. W. Lange,  A. Behn,  J. Deng,  X. Feng,  D. Ghosh,  
 M. Goldey,  P. R. Horn,  L. D. Jacobson,  I. Kaliman,  R. Z. Khaliullin,  
 T. Kus,  A. Landau,  J. Liu,  E. I. Proynov,  Y. M. Rhee,  R. M. Richard,  
 M. A. Rohrdanz,  R. P. Steele,  E. J. Sundstrom,  H. L. Woodcock III,  
 P. M. Zimmerman,  D. Zuev,  B. Albrecht,  E. Alguire,  B. Austin,  
 S. A. Baeppler,  G. J. O. Beran,  Y. A. Bernard,  E. Berquist,  
 K. Brandhorst,  K. B. Bravaya,  S. T. Brown,  D. Casanova,  C.-M. Chang,  
 Y. Chen,  S. H. Chien,  K. D. Closser,  D. L. Crittenden,  M. Diedenhofen,  
 R. A. DiStasio Jr.,  H. Do,  A. D. Dutoi,  R. G. Edgar,  P.-T. Fang,  
 S. Fatehi,  Q. Feng,  L. Fusti-Molnar,  A. Ghysels,  
 A. Golubeva-Zadorozhnaya,  J. Gomes,  A. Gunina,  M. W. D. Hanson-Heine,  
 P. H. P. Harbach,  A. W. Hauser,  E. G. Hohenstein,  Z. C. Holden,  K. Hui,  
 T.-C. Jagau,  H. Ji,  B. Kaduk,  K. Khistyaev,  Jaehoon Kim,  Jihan Kim,  
 R. A. King,  P. Klunzinger,  D. Kosenkov,  T. Kowalczyk,  C. M. Krauter,  
 K. U. Lao,  A. Laurent,  K. V. Lawler,  S. Lehtola,  S. V. Levchenko,  
 C. Y. Lin,  Y.-S. Lin,  F. Liu,  E. Livshits,  R. C. Lochan,  A. Luenser,  
 P. Manohar,  S. F. Manzer,  S.-P. Mao,  N. Mardirossian,  A. V. Marenich,  
 L. A. Martinez-Martinez,  S. A. Maurer,  N. J. Mayhall,  K. Nanda,  
 C. M. Oana,  R. Olivares-Amaya,  D. P. O'Neill,  J. A. Parkhill,  
 T. M. Perrine,  R. Peverati,  P. A. Pieniazek,  F. Plasser,  A. Prociuk,  
 D. R. Rehn,  E. Rosta,  N. J. Russ,  N. Sergueev,  S. M. Sharada,  
 S. Sharma,  D. W. Small,  A. Sodt,  T. Stauch,  T. Stein,  D. Stuck,  
 Y.-C. Su,  A. J. W. Thom,  T. Tsuchimochi,  L. Vogt,  O. Vydrov,  T. Wang,  
 M. A. Watson,  J. Wenzel,  A. White,  C. F. Williams,  V. Vanovschi,  
 S. Yeganeh,  S. R. Yost,  Z.-Q. You,  I. Y. Zhang,  X. Zhang,  Y. Zhao,  
 B. R. Brooks,  G. K. L. Chan,  D. M. Chipman,  C. J. Cramer,  
 W. A. Goddard III,  M. S. Gordon,  W. J. Hehre,  A. Klamt,  
 H. F. Schaefer III,  M. W. Schmidt,  C. D. Sherrill,  D. G. Truhlar,  
 A. Warshel,  X. Xu,  A. Aspuru-Guzik,  R. Baer,  A. T. Bell,  N. A. Besley,  
 J.-D. Chai,  A. Dreuw,  B. D. Dunietz,  T. R. Furlani,  S. R. Gwaltney,  
 C.-P. Hsu,  Y. Jung,  J. Kong,  D. S. Lambrecht,  W. Liang,  C. Ochsenfeld,  
 V. A. Rassolov,  L. V. Slipchenko,  J. E. Subotnik,  T. Van Voorhis,  
 J. M. Herbert,  A. I. Krylov,  P. M. W. Gill,  M. Head-Gordon

 Contributors to earlier versions of Q-Chem not listed above: 
 R. D. Adamson,  J. Baker,  E. F. C. Byrd,  A. K. Chakraborty,  C.-L. Cheng,  
 H. Dachsel,  R. J. Doerksen,  G. Hawkins,  A. Heyden,  S. Hirata,  
 G. Kedziora,  F. J. Keil,  C. Kelley,  P. P. Korambath,  W. Kurlancheek,  
 A. M. Lee,  M. S. Lee,  D. Liotard,  I. Lotan,  P. E. Maslen,  N. Nair,  
 D. Neuhauser,  R. Olson,  B. Peters,  J. Ritchie,  N. E. Schultz,  
 N. Shenvi,  A. C. Simmonett,  K. S. Thanthiriwatte,  Q. Wu,  W. Zhang

 Please cite Q-Chem as follows:
 Y. Shao et al., Mol. Phys. 113, 184-215 (2015)
 DOI: 10.1080/00268976.2014.952696

 Q-Chem 4.3.0 for Intel X86 EM64T Linux

 Parts of Q-Chem use Armadillo 5.200.1 (Boston Tea Smuggler).
 http://arma.sourceforge.net/

 Q-Chem begins on Mon Mar 20 16:11:04 2017  


Host: 0

     Scratch files written to /home/nmayhall/scratch_qchem/09//
 Dec1416 |home|nmayhall|qcSoftware|qchem|qchem.svn-casman|libmdc|qstr_RNUM -1
 Using version located at /home/nmayhall/qcSoftware/qchem/qchem.svn-casman/bin/qchem


Total Memory Limit in MB = 2000
Mega-Array Size in MB = 62

Checking the input file for inconsistencies... 	...done.

 Q-Chem warning in module /home/nmayhall/qcSoftware/qchem/qchem.svn-casman/forms1/BasisType.C, line 1452:

 You are not using the predefined 5D/6D in this basis set.

Finally everything over in PARseQInput

--------------------------------------------------------------
User input:
--------------------------------------------------------------
$rem
	exchange 		hf
	unrestricted		1
	basis			6-31g*	
	aux_basis		rimp2-vdz
	scf_guess		core	
	scf_convergence		8
	purecart		1111

	symmetry		0
	sym_ignore		1

	!correlation		sf-cas
	!cas_n_spin_flip		1
	!cas_local		1
	gui			2
$end

$development
	1sf_heis_projection	1
$end

$molecule
0 13
H         -0.73854       -0.54065        0.08576
H         -2.31340       -1.01748       -0.67017
H         -2.09582        0.65549       -0.01146
H         -2.21044       -0.75437        1.11995
H	1.47674	3.97203	0.09828
H	0.1685	4.56022	1.20546
H	0.18287	2.8348	0.65668
H	-0.21686	4.15528	-0.51743
H          3.48850       -0.87553       -0.06084
H          2.29649        0.48578       -0.00191
H          1.93960       -1.06676        0.85992
H          1.91588       -1.00965       -0.95022
He	10	10	10	
He	-10	10	10	
$end


--------------------------------------------------------------
 ----------------------------------------------------------------
             Standard Nuclear Orientation (Angstroms)
    I     Atom           X                Y                Z
 ----------------------------------------------------------------
    1      H      -0.7385400000    -0.5406500000     0.0857600000
    2      H      -2.3134000000    -1.0174800000    -0.6701700000
    3      H      -2.0958200000     0.6554900000    -0.0114600000
    4      H      -2.2104400000    -0.7543700000     1.1199500000
    5      H       1.4767400000     3.9720300000     0.0982800000
    6      H       0.1685000000     4.5602200000     1.2054600000
    7      H       0.1828700000     2.8348000000     0.6566800000
    8      H      -0.2168600000     4.1552800000    -0.5174300000
    9      H       3.4885000000    -0.8755300000    -0.0608400000
   10      H       2.2964900000     0.4857800000    -0.0019100000
   11      H       1.9396000000    -1.0667600000     0.8599200000
   12      H       1.9158800000    -1.0096500000    -0.9502200000
   13      He     10.0000000000    10.0000000000    10.0000000000
   14      He    -10.0000000000    10.0000000000    10.0000000000
 ----------------------------------------------------------------
 Nuclear Repulsion Energy =    12.3482172323 hartrees
 There are       14 alpha and        2 beta electrons
 Requested basis set is 6-31G(d)
 There are 28 shells and 28 basis functions

Total QAlloc Memory Limit   2000 MB
Mega-Array Size        61 MB
MEM_STATIC part        62 MB

finished with qalloc call

                       Distance Matrix (Angstroms)
             H (  1)   H (  2)   H (  3)   H (  4)   H (  5)   H (  6)
   H (  2)  1.810796
   H (  3)  1.811743  1.811096
   H (  4)  1.811550  1.812280  1.811334
   H (  5)  5.027117  6.312756  4.875927  6.080951
   H (  6)  5.300502  6.386592  4.674928  5.823361  1.811990
   H (  7)  3.545223  4.778280  3.223078  4.338743  1.810857  1.810646
   H (  8)  4.763166  5.583570  4.004376  5.546173  1.811342  1.811306
   H (  9)  4.242818  5.835536  5.790604  5.821242  5.250841  6.494097
   H ( 10)  3.205098  4.894635  4.395598  4.807178  3.582732  4.752594
   H ( 11)  2.836997  4.520134  4.473261  4.169896  5.117005  5.909238
   H ( 12)  2.887761  4.238549  4.443838  4.623558  5.109729  6.222841
   He( 13) 18.019814 19.668686 18.271783 18.536629 14.388413 14.268621
   He( 14) 17.180573 17.155792 15.812187 15.974636 16.312451 14.502880
             H (  7)   H (  8)   H (  9)   H ( 10)   H ( 11)   H ( 12)
   H (  8)  1.811625
   H (  9)  5.020814  6.264760
   H ( 10)  3.227851  4.477490  1.810394
   H ( 11)  4.283641  5.815248  1.812032  1.811216
   H ( 12)  4.512787  5.604676  1.811662  1.811206  1.811196
   He( 13) 15.330159 15.784844 16.183241 15.808310 16.461600 17.506362
   He( 14) 15.566906 15.507641 20.035900 18.486813 18.669984 19.573143
             He( 13)
   He( 14) 20.000000


 Q-Chem warning in module /home/nmayhall/qcSoftware/qchem/qchem.svn-casman/forms1/BasisType.C, line 1375:

 SAD: How to set up polarization functions for non-Pople basis?

 Requested basis set is rimp2-VDZ
 There are 82 shells and 186 basis functions
 Job number = 2, Threshold = 1.00E-11
Integral type ranges set in mkLRange.C for JobNum: 2  <1-7|1-7>
Symmetry turned off temporarily
 Using the largest function pair in Schwarz integrals
Total number of integrals generated =            1003
Symmetry turned back on
 A cutoff of  1.0D-11 yielded    277 shell pairs
 There are       277 function pairs
 Job number = 11, Threshold = 1.00E-11
Integral type ranges set in mkLRange.C for JobNum: 11  <1-1|8-8>

 -------------------------------------------------------
 OpenMP Integral Computing Module                       
 Release: version 1.0, May 2013, Q-Chem Inc. Pittsburgh 
 -------------------------------------------------------
 Integral Job Info:
 Integral job number is                      11
 Integral operator is                         1
 short-range coefficients                     0
 long-range coefficients              100000000
 Omega coefficients                           0
 if combine SR and LR in K                    0
 Integral screening is                        0
 Integral computing path is                   2
 max size of driver memory is            800000
 size of driver memory is                 11780
 size of scratch memory is               800000
 max col of scratch BK array                289
 max len of scratch array in speh3            1
 max len of scratch index in speh4            2
 max int batch size is                      520
 min int batch size is                       52
 fixed nKL is                               520
 max L of basis functions is                  0
 order of int derivative is                   0
 number of shells is                         28
 number of basis is                          28
 number of cartesian basis is                28
 number of contracted shell pairs           277
 number of primitive shell pairs            777
 maxK2 (contraction) of shell pair            9
 max number of K2 of shell pair               1
 max number of CS2 of shell pair            139
 max number of PS2 of shell pair            417
 mem total for path MDJ                    6684
 -------------------------------------------------------
 Smallest overlap matrix eigenvalue = 2.11E-01
 Multipole matrices computed through 2nd order

  Scale SEOQF with 1.000000e-02/1.000000e-02/1.000000e-02

 Standard Electronic Orientation quadrupole field applied
 Nucleus-field energy     =     0.0000000006 hartrees
GuessMan:  IGuess = 1
 Guess MOs from core Hamiltonian diagonalization
scfman initvdwdat 
 An unrestricted Hartree-Fock SCF calculation will be
 performed using Pulay DIIS extrapolation
 SCF converges when DIIS error is below 1.0E-08
Finding J and K together
 Job number = 22, Threshold = 1.00E-11
Integral type ranges set in mkLRange.C for JobNum: 22  <1-1|1-1>
Storing 4722.18% of integrals
Total number of integrals generated =           33947
 MakeJK  time:  CPU       0.01 s  wall       0.01 s
Fock build time:  0.01 s (CPU) 0.01 s (wall)
DIIS Errors:  Max 3.25E-01 RMS 2.77E-02

Current DIIS subspace size = 1
REM_GRID_RESTART_DIIS = 0

 ---------------------------------------
  Cycle       Energy         DIIS Error
 ---------------------------------------
    1      -9.5232488054      2.77E-02  00000
Finding J and K together
 Job number = 22, Threshold = 1.00E-11
Integral type ranges set in mkLRange.C for JobNum: 22  <1-1|1-1>
Storing 4722.18% of integrals
Reusing in-core integrals buffer for job 22
 MakeJK  time:  CPU       0.00 s  wall       0.00 s
Fock build time:  0.00 s (CPU) 0.00 s (wall)
DIIS Errors:  Max 2.54E-01 RMS 1.90E-02

Current DIIS subspace size = 2
REM_GRID_RESTART_DIIS = 0

    2     -11.3747609850      1.90E-02  00000
Finding J and K together
 Job number = 22, Threshold = 1.00E-11
Integral type ranges set in mkLRange.C for JobNum: 22  <1-1|1-1>
Storing 4722.18% of integrals
Reusing in-core integrals buffer for job 22
 MakeJK  time:  CPU       0.00 s  wall       0.00 s
Fock build time:  0.00 s (CPU) 0.00 s (wall)
DIIS Errors:  Max 1.11E-01 RMS 8.48E-03

Current DIIS subspace size = 3
REM_GRID_RESTART_DIIS = 0

    3     -11.4386594575      8.48E-03  00000
Finding J and K together
 Job number = 22, Threshold = 1.00E-11
Integral type ranges set in mkLRange.C for JobNum: 22  <1-1|1-1>
Storing 4722.18% of integrals
Reusing in-core integrals buffer for job 22
 MakeJK  time:  CPU       0.00 s  wall       0.00 s
Fock build time:  0.00 s (CPU) 0.00 s (wall)
DIIS Errors:  Max 8.54E-03 RMS 8.00E-04

Current DIIS subspace size = 4
REM_GRID_RESTART_DIIS = 0

    4     -11.4690584020      8.00E-04  00000
Finding J and K together
 Job number = 22, Threshold = 1.00E-11
Integral type ranges set in mkLRange.C for JobNum: 22  <1-1|1-1>
Storing 4722.18% of integrals
Reusing in-core integrals buffer for job 22
 MakeJK  time:  CPU       0.00 s  wall       0.00 s
Fock build time:  0.00 s (CPU) 0.00 s (wall)
DIIS Errors:  Max 1.46E-04 RMS 1.10E-05

Current DIIS subspace size = 5
REM_GRID_RESTART_DIIS = 0

    5     -11.4716024770      1.10E-05  00000
Finding J and K together
 Job number = 22, Threshold = 1.00E-11
Integral type ranges set in mkLRange.C for JobNum: 22  <1-1|1-1>
Storing 4722.18% of integrals
Reusing in-core integrals buffer for job 22
 MakeJK  time:  CPU       0.00 s  wall       0.00 s
Fock build time:  0.00 s (CPU) 0.00 s (wall)
DIIS Errors:  Max 1.24E-05 RMS 9.13E-07

Current DIIS subspace size = 6
REM_GRID_RESTART_DIIS = 0

    6     -11.4717059132      9.13E-07  00000
Finding J and K together
 Job number = 22, Threshold = 1.00E-11
Integral type ranges set in mkLRange.C for JobNum: 22  <1-1|1-1>
Storing 4722.18% of integrals
Reusing in-core integrals buffer for job 22
 MakeJK  time:  CPU       0.00 s  wall       0.00 s
Fock build time:  0.00 s (CPU) 0.00 s (wall)
DIIS Errors:  Max 3.50E-07 RMS 3.05E-08

Current DIIS subspace size = 7
REM_GRID_RESTART_DIIS = 0

    7     -11.4717220010      3.05E-08  00000
Finding J and K together
 Job number = 22, Threshold = 1.00E-11
Integral type ranges set in mkLRange.C for JobNum: 22  <1-1|1-1>
Storing 4722.18% of integrals
Reusing in-core integrals buffer for job 22
 MakeJK  time:  CPU       0.00 s  wall       0.00 s
Fock build time:  0.00 s (CPU) 0.00 s (wall)
DIIS Errors:  Max 2.23E-07 RMS 1.67E-08

Current DIIS subspace size = 8
REM_GRID_RESTART_DIIS = 0

    8     -11.4717251108      1.67E-08  00000
Finding J and K together
 Job number = 22, Threshold = 1.00E-11
Integral type ranges set in mkLRange.C for JobNum: 22  <1-1|1-1>
Storing 4722.18% of integrals
Reusing in-core integrals buffer for job 22
 MakeJK  time:  CPU       0.00 s  wall       0.00 s
Fock build time:  0.00 s (CPU) 0.00 s (wall)
DIIS Errors:  Max 4.28E-09 RMS 3.20E-10

Current DIIS subspace size = 9
REM_GRID_RESTART_DIIS = 0

    9     -11.4717254764      3.20E-10  00000 Convergence criterion met
 ---------------------------------------
 <S^2> = 42.0000
 SCF time:  CPU 0.04 s  wall 0.04 s
 SCF   energy in the final basis set = -11.4717254764
 Total energy in the final basis set = -11.4717254764
Symmetry turned off temporarily
 Analysis of SCF Wavefunction

 --------------------------------------------------------------

                    Orbital Energies (a.u.)
 --------------------------------------------------------------

 Alpha MOs
 -- Occupied --
 -0.914  -0.914  -0.709  -0.702  -0.698  -0.469  -0.465  -0.457
 -0.455  -0.454  -0.452  -0.449  -0.444  -0.439
 -- Virtual --
  0.829   0.858   0.889   0.905   0.917   0.928   0.953   0.975
  0.987   1.058   1.113   1.151   1.400   1.400

 Beta MOs
 -- Occupied --
 -0.914  -0.914
 -- Virtual --
 -0.050  -0.038  -0.033   0.139   0.143   0.155   0.160   0.163
  0.166   0.173   0.185   0.193   1.050   1.073   1.097   1.112
  1.121   1.130   1.152   1.173   1.184   1.261   1.312   1.347
  1.400   1.400
 --------------------------------------------------------------

          Ground-State Mulliken Net Atomic Charges

     Atom                 Charge (a.u.)    Spin (a.u.)
  --------------------------------------------------------
      1 H                     0.000099       0.999901
      2 H                     0.000008       0.999992
      3 H                    -0.000007       1.000007
      4 H                     0.000004       0.999996
      5 H                    -0.000010       1.000010
      6 H                     0.000006       0.999994
      7 H                     0.000011       0.999989
      8 H                    -0.000009       1.000009
      9 H                     0.000066       0.999934
     10 H                    -0.000032       1.000032
     11 H                    -0.000066       1.000066
     12 H                    -0.000069       1.000069
     13 He                    0.000000       0.000000
     14 He                    0.000000       0.000000
  --------------------------------------------------------
  Sum of atomic charges =     0.000000
  Sum of spin   charges =    12.000000

 -----------------------------------------------------------------
                    Cartesian Multipole Moments
 -----------------------------------------------------------------
    Charge (ESU x 10^10)
                 0.0000
    Dipole Moment (Debye)
         X      -0.0004      Y      -0.0005      Z       0.0002
       Tot       0.0007
    Quadrupole Moments (Debye-Ang)
        XX     -19.6047     XY       0.0140     YY     -19.5258
        XZ      -0.0001     YZ      -0.0036     ZZ     -19.5136
    Octopole Moments (Debye-Ang^2)
       XXX     -19.5107    XXY     -36.8976    XYY      -4.8367
       YYY    -113.3082    XXZ     -22.9223    XYZ      -0.0091
       YYZ     -23.7960    XZZ      -4.1142    YZZ     -36.8093
       ZZZ     -70.7106
    Hexadecapole Moments (Debye-Ang^3)
      XXXX   -1642.4363   XXXY     -14.8772   XXYY    -584.1060
      XYYY     -12.4389   YYYY   -1844.8944   XXXZ       3.4172
      XXYZ    -215.0246   XYYZ       0.0490   YYYZ    -655.0443
      XXZZ    -491.0328   XYZZ      -3.9746   YYZZ    -534.0913
      XZZZ       4.4600   YZZZ    -649.4750   ZZZZ   -1318.2289
 -----------------------------------------------------------------
 JobOver = TRUE
Archival summary:
1\1\sinatra\SP\HF\6-31G*\e212()\nmayhall\MonMar2016:11:042017MonMar2016:11:042017\0\\#,HF,6-31G*,\\0,13\H\H,1,1.8108\H,2,1.8111,1,60.0291\H,3,1.81133,2,60.0389,1,70.5227,0\H,1,2.837,2,152.386,3,178.05,0\H,5,1.8112,1,73.0863,2,-68.5028,0\H,6,1.81121,5,60.0005,1,-92.9521,0\H,7,1.81039,6,60.0315,5,-70.571,0\H,3,3.22308,2,141.713,1,-24.773,0\H,9,1.81065,3,134.551,2,-173.704,0\H,9,1.81086,3,149.981,2,-66.049,0\H,10,1.81131,9,60.0237,3,76.1055,0\He,10,14.2686,9,123,3,-145.172,0\He,10,14.5029,9,123.147,3,-33.0754,0\\HF=-11.4717255\\@

 Total job time:  0.10s(wall), 0.10s(cpu) 
 Mon Mar 20 16:11:04 2017

        *************************************************************
        *                                                           *
        *  Thank you very much for using Q-Chem.  Have a nice day.  *
        *                                                           *
        *************************************************************


*** MISSION COMPLETED -- STARFLEET OUT ***

 
User input: 2 of 2 
 
                  Welcome to Q-Chem
     A Quantum Leap Into The Future Of Chemistry


 Q-Chem 4.3, Q-Chem, Inc., Pleasanton, CA (2015)

 Y. Shao,  Z. Gan,  E. Epifanovsky,  A. T. B. Gilbert,  M. Wormit,  
 J. Kussmann,  A. W. Lange,  A. Behn,  J. Deng,  X. Feng,  D. Ghosh,  
 M. Goldey,  P. R. Horn,  L. D. Jacobson,  I. Kaliman,  R. Z. Khaliullin,  
 T. Kus,  A. Landau,  J. Liu,  E. I. Proynov,  Y. M. Rhee,  R. M. Richard,  
 M. A. Rohrdanz,  R. P. Steele,  E. J. Sundstrom,  H. L. Woodcock III,  
 P. M. Zimmerman,  D. Zuev,  B. Albrecht,  E. Alguire,  B. Austin,  
 S. A. Baeppler,  G. J. O. Beran,  Y. A. Bernard,  E. Berquist,  
 K. Brandhorst,  K. B. Bravaya,  S. T. Brown,  D. Casanova,  C.-M. Chang,  
 Y. Chen,  S. H. Chien,  K. D. Closser,  D. L. Crittenden,  M. Diedenhofen,  
 R. A. DiStasio Jr.,  H. Do,  A. D. Dutoi,  R. G. Edgar,  P.-T. Fang,  
 S. Fatehi,  Q. Feng,  L. Fusti-Molnar,  A. Ghysels,  
 A. Golubeva-Zadorozhnaya,  J. Gomes,  A. Gunina,  M. W. D. Hanson-Heine,  
 P. H. P. Harbach,  A. W. Hauser,  E. G. Hohenstein,  Z. C. Holden,  K. Hui,  
 T.-C. Jagau,  H. Ji,  B. Kaduk,  K. Khistyaev,  Jaehoon Kim,  Jihan Kim,  
 R. A. King,  P. Klunzinger,  D. Kosenkov,  T. Kowalczyk,  C. M. Krauter,  
 K. U. Lao,  A. Laurent,  K. V. Lawler,  S. Lehtola,  S. V. Levchenko,  
 C. Y. Lin,  Y.-S. Lin,  F. Liu,  E. Livshits,  R. C. Lochan,  A. Luenser,  
 P. Manohar,  S. F. Manzer,  S.-P. Mao,  N. Mardirossian,  A. V. Marenich,  
 L. A. Martinez-Martinez,  S. A. Maurer,  N. J. Mayhall,  K. Nanda,  
 C. M. Oana,  R. Olivares-Amaya,  D. P. O'Neill,  J. A. Parkhill,  
 T. M. Perrine,  R. Peverati,  P. A. Pieniazek,  F. Plasser,  A. Prociuk,  
 D. R. Rehn,  E. Rosta,  N. J. Russ,  N. Sergueev,  S. M. Sharada,  
 S. Sharma,  D. W. Small,  A. Sodt,  T. Stauch,  T. Stein,  D. Stuck,  
 Y.-C. Su,  A. J. W. Thom,  T. Tsuchimochi,  L. Vogt,  O. Vydrov,  T. Wang,  
 M. A. Watson,  J. Wenzel,  A. White,  C. F. Williams,  V. Vanovschi,  
 S. Yeganeh,  S. R. Yost,  Z.-Q. You,  I. Y. Zhang,  X. Zhang,  Y. Zhao,  
 B. R. Brooks,  G. K. L. Chan,  D. M. Chipman,  C. J. Cramer,  
 W. A. Goddard III,  M. S. Gordon,  W. J. Hehre,  A. Klamt,  
 H. F. Schaefer III,  M. W. Schmidt,  C. D. Sherrill,  D. G. Truhlar,  
 A. Warshel,  X. Xu,  A. Aspuru-Guzik,  R. Baer,  A. T. Bell,  N. A. Besley,  
 J.-D. Chai,  A. Dreuw,  B. D. Dunietz,  T. R. Furlani,  S. R. Gwaltney,  
 C.-P. Hsu,  Y. Jung,  J. Kong,  D. S. Lambrecht,  W. Liang,  C. Ochsenfeld,  
 V. A. Rassolov,  L. V. Slipchenko,  J. E. Subotnik,  T. Van Voorhis,  
 J. M. Herbert,  A. I. Krylov,  P. M. W. Gill,  M. Head-Gordon

 Contributors to earlier versions of Q-Chem not listed above: 
 R. D. Adamson,  J. Baker,  E. F. C. Byrd,  A. K. Chakraborty,  C.-L. Cheng,  
 H. Dachsel,  R. J. Doerksen,  G. Hawkins,  A. Heyden,  S. Hirata,  
 G. Kedziora,  F. J. Keil,  C. Kelley,  P. P. Korambath,  W. Kurlancheek,  
 A. M. Lee,  M. S. Lee,  D. Liotard,  I. Lotan,  P. E. Maslen,  N. Nair,  
 D. Neuhauser,  R. Olson,  B. Peters,  J. Ritchie,  N. E. Schultz,  
 N. Shenvi,  A. C. Simmonett,  K. S. Thanthiriwatte,  Q. Wu,  W. Zhang

 Please cite Q-Chem as follows:
 Y. Shao et al., Mol. Phys. 113, 184-215 (2015)
 DOI: 10.1080/00268976.2014.952696

 Q-Chem 4.3.0 for Intel X86 EM64T Linux

 Parts of Q-Chem use Armadillo 5.200.1 (Boston Tea Smuggler).
 http://arma.sourceforge.net/

 Q-Chem begins on Mon Mar 20 16:11:04 2017  


Host: 0

     Scratch files written to /home/nmayhall/scratch_qchem/09//
 Dec1416 |home|nmayhall|qcSoftware|qchem|qchem.svn-casman|libmdc|qstr_RNUM -1
 Using version located at /home/nmayhall/qcSoftware/qchem/qchem.svn-casman/bin/qchem

 Turning off symmetry for CASMAN

Total Memory Limit in MB = 2000
Mega-Array Size in MB = 62

Checking the input file for inconsistencies... 	...done.

 Q-Chem warning in module /home/nmayhall/qcSoftware/qchem/qchem.svn-casman/forms1/BasisType.C, line 1452:

 You are not using the predefined 5D/6D in this basis set.

Finally everything over in PARseQInput

--------------------------------------------------------------
User input:
--------------------------------------------------------------
$rem
	exchange 		hf
	unrestricted		0
	basis			6-31g*	
	aux_basis		rimp2-vdz
	scf_guess		read	
	scf_convergence		8
	purecart		1111

	symmetry		0
	sym_ignore		1

	correlation		sf-cas
	cas_n_spin_flip		1
	cas_local		1
	gui			2
$end

$development
	1sf_heis_projection	1
	scf_corresponding_orbs	1
$end

$molecule
read
$end

--------------------------------------------------------------
 ----------------------------------------------------------------
             Standard Nuclear Orientation (Angstroms)
    I     Atom           X                Y                Z
 ----------------------------------------------------------------
    1      H      -0.7385400000    -0.5406500000     0.0857600000
    2      H      -2.3134000000    -1.0174800000    -0.6701700000
    3      H      -2.0958200000     0.6554900000    -0.0114600000
    4      H      -2.2104400000    -0.7543700000     1.1199500000
    5      H       1.4767400000     3.9720300000     0.0982800000
    6      H       0.1685000000     4.5602200000     1.2054600000
    7      H       0.1828700000     2.8348000000     0.6566800000
    8      H      -0.2168600000     4.1552800000    -0.5174300000
    9      H       3.4885000000    -0.8755300000    -0.0608400000
   10      H       2.2964900000     0.4857800000    -0.0019100000
   11      H       1.9396000000    -1.0667600000     0.8599200000
   12      H       1.9158800000    -1.0096500000    -0.9502200000
   13      He     10.0000000000    10.0000000000    10.0000000000
   14      He    -10.0000000000    10.0000000000    10.0000000000
 ----------------------------------------------------------------
 Nuclear Repulsion Energy =    12.3482172323 hartrees
 There are       14 alpha and        2 beta electrons
 Requested basis set is 6-31G(d)
 There are 28 shells and 28 basis functions

Total QAlloc Memory Limit   2000 MB
Mega-Array Size        61 MB
MEM_STATIC part        62 MB

finished with qalloc call

                       Distance Matrix (Angstroms)
             H (  1)   H (  2)   H (  3)   H (  4)   H (  5)   H (  6)
   H (  2)  1.810796
   H (  3)  1.811743  1.811096
   H (  4)  1.811550  1.812280  1.811334
   H (  5)  5.027117  6.312756  4.875927  6.080951
   H (  6)  5.300502  6.386592  4.674928  5.823361  1.811990
   H (  7)  3.545223  4.778280  3.223078  4.338743  1.810857  1.810646
   H (  8)  4.763166  5.583570  4.004376  5.546173  1.811342  1.811306
   H (  9)  4.242818  5.835536  5.790604  5.821242  5.250841  6.494097
   H ( 10)  3.205098  4.894635  4.395598  4.807178  3.582732  4.752594
   H ( 11)  2.836997  4.520134  4.473261  4.169896  5.117005  5.909238
   H ( 12)  2.887761  4.238549  4.443838  4.623558  5.109729  6.222841
   He( 13) 18.019814 19.668686 18.271783 18.536629 14.388413 14.268621
   He( 14) 17.180573 17.155792 15.812187 15.974636 16.312451 14.502880
             H (  7)   H (  8)   H (  9)   H ( 10)   H ( 11)   H ( 12)
   H (  8)  1.811625
   H (  9)  5.020814  6.264760
   H ( 10)  3.227851  4.477490  1.810394
   H ( 11)  4.283641  5.815248  1.812032  1.811216
   H ( 12)  4.512787  5.604676  1.811662  1.811206  1.811196
   He( 13) 15.330159 15.784844 16.183241 15.808310 16.461600 17.506362
   He( 14) 15.566906 15.507641 20.035900 18.486813 18.669984 19.573143
             He( 13)
   He( 14) 20.000000


 Q-Chem warning in module /home/nmayhall/qcSoftware/qchem/qchem.svn-casman/forms1/BasisType.C, line 1375:

 SAD: How to set up polarization functions for non-Pople basis?

 Requested basis set is rimp2-VDZ
 There are 82 shells and 186 basis functions
 Job number = 2, Threshold = 1.00E-12
Integral type ranges set in mkLRange.C for JobNum: 2  <1-7|1-7>
Symmetry turned off temporarily
 Using the largest function pair in Schwarz integrals
Total number of integrals generated =            1006
Symmetry turned back on
 A cutoff of  1.0D-12 yielded    280 shell pairs
 There are       280 function pairs
 Job number = 11, Threshold = 1.00E-12
Integral type ranges set in mkLRange.C for JobNum: 11  <1-1|8-8>

 -------------------------------------------------------
 OpenMP Integral Computing Module                       
 Release: version 1.0, May 2013, Q-Chem Inc. Pittsburgh 
 -------------------------------------------------------
 Integral Job Info:
 Integral job number is                      11
 Integral operator is                         1
 short-range coefficients                     0
 long-range coefficients              100000000
 Omega coefficients                           0
 if combine SR and LR in K                    0
 Integral screening is                        0
 Integral computing path is                   2
 max size of driver memory is            800000
 size of driver memory is                 11780
 size of scratch memory is               800000
 max col of scratch BK array                289
 max len of scratch array in speh3            1
 max len of scratch index in speh4            2
 max int batch size is                      520
 min int batch size is                       52
 fixed nKL is                               520
 max L of basis functions is                  0
 order of int derivative is                   0
 number of shells is                         28
 number of basis is                          28
 number of cartesian basis is                28
 number of contracted shell pairs           280
 number of primitive shell pairs            798
 maxK2 (contraction) of shell pair            9
 max number of K2 of shell pair               1
 max number of CS2 of shell pair            148
 max number of PS2 of shell pair            444
 mem total for path MDJ                    6792
 -------------------------------------------------------
 Smallest overlap matrix eigenvalue = 2.11E-01
 Multipole matrices computed through 2nd order

  Scale SEOQF with 1.000000e-02/1.000000e-02/1.000000e-02

 Standard Electronic Orientation quadrupole field applied
 Nucleus-field energy     =     0.0000000006 hartrees
GuessMan:  IGuess = 1000
 Guess MOs from SCF MO coefficient file
 Reading MOs from coefficient file
 Reading MOs from coefficient file
scfman initvdwdat 
 A restricted Hartree-Fock SCF calculation will be
 performed using Geometric Direct Minimization
 SCF converges when RMS gradient is below 1.0E-08
Finding J and K together
 Job number = 22, Threshold = 1.00E-12
Integral type ranges set in mkLRange.C for JobNum: 22  <1-1|1-1>
Storing 4621.71% of integrals
Total number of integrals generated =           35285
 MakeJK  time:  CPU       0.01 s  wall       0.01 s
Fock build time:  0.01 s (CPU) 0.01 s (wall)
 ---------------------------------------
  Cycle       Energy        RMS Gradient
 ---------------------------------------
    1     -11.4717255046      9.98E-05  00000 Normal BFGS step
Finding J and K together
 Job number = 22, Threshold = 1.00E-12
Integral type ranges set in mkLRange.C for JobNum: 22  <1-1|1-1>
Storing 4621.71% of integrals
Reusing in-core integrals buffer for job 22
 MakeJK  time:  CPU       0.00 s  wall       0.00 s
Fock build time:  0.00 s (CPU) 0.00 s (wall)
    2     -11.4717255099      4.14E-10  00000 Convergence criterion met
 ---------------------------------------
 SCF time:  CPU 0.02 s  wall 0.02 s
 Obtaining Corresponding orbitals

 Forming corresponding orbitals block-by-block...
 Size of singly occupied alpha block:      12 : 12.0000
 Size of doubly occupied block:             2 : 2.0000
 Size of singly occupied beta block:        0 : 0.0000
 Size of unoccupied block:                 14 : 14.0000
 Use scf_boys =     0 (Canonical)
                    1 (Boys)
                    2 (Pipek-Mezey)
                    3 (ER)
 Build new fock matrix
 I'm here
 I'm here
 Calling AOints...
 Job number = 22, Threshold = 1.00E-12
Integral type ranges set in mkLRange.C for JobNum: 22  <1-1|1-1>
Storing 4621.71% of integrals
 done.
 E(SCF): disk=    -11.471725509859 current=    -11.471725509859 diff=  -5.329e-15
 SCF   energy in the final basis set = -11.4717255099
 Total energy in the final basis set = -11.4717255099
 DevKeyword Parameters: 
 1sf_heis_projection                   1
scf_corresponding_orbs                   1


 ========================================================
                       In SF-CAS-CI                      
 ========================================================
 DevKeyword Parameters: 
 1sf_heis_projection                   1
scf_corresponding_orbs                   1

 Forming orbitals for SF-CAS calculation.
NBas   : 28
NOrb   : 28
NDOcc  : 2
NSOcc  : 12
NDVir  : 14
ISpin  : 0
e_hf: -11.47172551
 Using OPT1 Orbitals: Favg | Favg | Favg 
 A/B mix in Doubly occupied F  : 0.50000000
 A/B mix in Singly occupied F  : 0.50000000
 A/B mix in Doubly unoccupied F: 0.50000000
 Max of F(beta)ds      : 3.856e-16
 Max of F(alpha)sv     : 2.502e-12
 Max of F(average)dv   : 2.382e-11
 Orbital Energies  (D):
    1    -0.91413160    -0.91413160
    2    -0.91412583    -0.91412583
 Orbital Energies  (S):
    3    -0.36564353    -0.36564353
    4    -0.35709226    -0.35709226
    5    -0.35288714    -0.35288714
    6    -0.14425247    -0.14425247
    7    -0.14035887    -0.14035887
    8    -0.13137421    -0.13137421
    9    -0.12848609    -0.12848609
   10    -0.12669312    -0.12669312
   11    -0.12466578    -0.12466578
   12    -0.12052223    -0.12052223
   13    -0.11303334    -0.11303334
   14    -0.10686640    -0.10686640
 Orbital Energies  (V):
   15     0.91843618     0.91843618
   16     0.94496154     0.94496154
   17     0.97362339     0.97362339
   18     0.98946444     0.98946444
   19     1.00039491     1.00039491
   20     1.01082222     1.01082222
   21     1.03480443     1.03480443
   22     1.05762604     1.05762604
   23     1.06927109     1.06927109
   24     1.14658982     1.14658982
   25     1.20028767     1.20028767
   26     1.23681269     1.23681269
   27     1.39985437     1.39985437
   28     1.39986013     1.39986013
 tr(Pa)     :   14.0000000000
 tr(Pb)     :    2.0000000000
 E(core) with new P : -37.79168724
 E(HF) with new P   : -11.47172551
 Difference in Ehf  :   5.8620e-14

 Number of spin flips: 1
 Use cas_local =    0 (Canonical)
                    1 (Boys)
                    2 (Pipek-Mezey)
                    3 (ER)
 Using Boys orbitals in casman
 
 
 
Calling Get_Boys in C++
 
 
 
Orbital 8 Variance 9.14502383
Orbital 2 Variance 18.06693431
Orbital 12 Variance 21.31543590
Orbital 9 Variance 22.02703243
Orbital 3 Variance 23.44715080
Orbital 7 Variance 23.48551331
Orbital 4 Variance 24.47335738
Orbital 5 Variance 24.99955866
Orbital 11 Variance 26.43484927
Orbital 1 Variance 27.55133467
Orbital 6 Variance 29.14602396
Orbital 10 Variance 30.73130459
          ***** NUMBER OF SADDLE POINTS SO FAR = 0 ******

Initially in boys_jacobi.C before sweep, get_boys, boysval = 169.590581
In BOYS_JACOBI SWEEPS for get_boys, ending in round     5  because max_diff = 7.987937e-07


---> BEGIN 2nd Der Calculation    ******  
Guessing MaxD =  20 and MinD = 10
in get_boys.C: p = 0 guessthresh  52.5817842532 numsofar 18 MinD 10
in get_boys.C: p = 1 guessthresh  52.0817842532 numsofar 18 MinD 10
in get_boys.C: p = 2 guessthresh  51.8317842532 numsofar 18 MinD 10
in get_boys.C: p = 3 guessthresh  51.7067842532 numsofar 5 MinD 10
DimInGuess 5 mineval  51.5817842532 guessthresh  51.7067842532
round 0 sizeofsub 5 eval0 5.096113e+01 diffeval0 1.000500e+05 length_qM 1.114317e+00 thresh 1.000000e-08
round 1 sizeofsub 6 eval0 5.036262e+01 diffeval0 5.985116e-01 length_qM 1.074601e-01 thresh 1.000000e-08
round 2 sizeofsub 7 eval0 5.036187e+01 diffeval0 7.508126e-04 length_qM 2.452825e-01 thresh 1.000000e-08
round 3 sizeofsub 8 eval0 5.036059e+01 diffeval0 1.275959e-03 length_qM 1.594144e-02 thresh 1.000000e-08
round 4 sizeofsub 9 eval0 5.036059e+01 diffeval0 8.100371e-06 length_qM 2.408096e-02 thresh 1.000000e-08
round 5 sizeofsub 10 eval0 5.036057e+01 diffeval0 1.949194e-05 length_qM 6.158338e-03 thresh 1.000000e-08
round 6 sizeofsub 11 eval0 5.036057e+01 diffeval0 1.961939e-06 length_qM 1.288138e-03 thresh 1.000000e-08
round 7 sizeofsub 12 eval0 5.036057e+01 diffeval0 6.151168e-09 length_qM 9.490318e-06 thresh 1.000000e-08
round 8 sizeofsub 13 eval0 5.036057e+01 diffeval0 7.645440e-12 length_qM 1.445132e-05 thresh 1.000000e-08
round 9 sizeofsub 14 eval0 5.036057e+01 diffeval0 9.372059e-12 length_qM 2.104805e-05 thresh 1.000000e-08
round 10 sizeofsub 15 eval0 5.036057e+01 diffeval0 2.977174e-12 length_qM 4.684789e-07 thresh 1.000000e-08
Converged to smallest eigenvalue: eval0 5.036057e+01

Success!!! No Negative Eigenvalues: Ending Get Boys in C++ ...Bye Bye
Orbital 12 Variance 2.76560194
Orbital 9 Variance 2.77107930
Orbital 4 Variance 2.77264077
Orbital 11 Variance 2.77477466
Orbital 5 Variance 2.77513945
Orbital 3 Variance 2.77558191
Orbital 7 Variance 2.77619460
Orbital 2 Variance 2.77628821
Orbital 1 Variance 2.77649440
Orbital 6 Variance 2.77664323
Orbital 8 Variance 2.77665793
Orbital 10 Variance 2.77673305
EXECUTING ORTHO_FUNC DESTRUCTOR

 Dimensions of orbital sub-spaces:    
 Number Hole Orbs:Alpha:Beta:       2    2    2
 Number Active Orbs:Alpha:Beta:    12   11    1
 Number Part Orbs:Alpha:Beta:      14    0    0

 Dimensions in SF-RAS-hp calculation: 
 Number of active space determinants:  144
 Number of hole space determinants:    1608
 Number of part space determinants:    11256
 Number of hole-part determinants:     130060
 Total 1x space:                       13008
 Total singles space:                  143068
 REM_MEM_TOT: 2000
 Memory Used: 0
 Memory Left: 2000
 Memory Need: 2
 Constructing 1e MO integrals
 Form (P|Q)**(-1/2)...
 Job number = 66, Threshold = 1.00E-12
Integral type ranges set in mkLRange.C for JobNum: 66  <2-7|2-7>
Symmetry turned off temporarily
Storing 4621.71% of integrals
Total number of integrals generated =           19965
Symmetry turned back on
 Forming (pq|P)...
 Forming Active-Active (aa|P) integrals...

 Entering first-index batching code with I1Strt =    3 batch size =   12
 Job number = 65, Threshold = 1.00E-12
Integral type ranges set in mkLRange.C for JobNum: 65  <1-1|2-7>
Symmetry turned off temporarily
Storing 4621.71% of integrals
Total number of integrals generated =           55440
Symmetry turned back on
 Forming Active-Active B integrals...
 Contracting B matrices to form 2e integrals. 
 Forming 2J-K over o,v with exact integrals
 Calling AOints... Job number = 22, Threshold = 1.00E-12
Integral type ranges set in mkLRange.C for JobNum: 22  <1-1|1-1>
Storing 4621.71% of integrals
Total number of integrals generated =           35285
 done.

 ROHF energy found on disk: 
 E(ROHF):         -11.47172551
-11.47172551
 First 10 Diagonal elements of H: 
 11111111111_ | 1___________        -11.07906445
 11111111111_ | _1__________        -10.91801284
 11111111111_ | __1_________        -10.93159295
 11111111111_ | ___1________        -10.99235815
 11111111111_ | ____1_______        -11.07854148
 11111111111_ | _____1______        -10.97351811
 11111111111_ | ______1_____        -11.07888921
 11111111111_ | _______1____        -10.90657140
 11111111111_ | ________1___        -10.99536048
 11111111111_ | _________1__        -10.91207638
 Fill S2_CAS Matrix...  done.
 Fill H_CAS Matrix...  done.

 Diagonalizing H_CAS 
 Entering cast_sfcas_to_sfcis
 ===================================================================
 Theory           State:          Energy (au)       (eV)       <S2>
 -------------------------------------------------------------------
 SF-CAS               1:       -11.5298853407     0.0000    30.0000
 SF-CAS               2:       -11.5287740490     0.0302    30.0000
 SF-CAS               3:       -11.5284393146     0.0393    30.0000
 SF-CAS               4:       -11.5282583324     0.0443    30.0000
 SF-CAS               5:       -11.5280582357     0.0497    30.0000
 SF-CAS               6:       -11.5280453995     0.0501    30.0000
 SF-CAS               7:       -11.5280019814     0.0512    30.0000
 SF-CAS               8:       -11.5279028962     0.0539    30.0000
 SF-CAS               9:       -11.5278608153     0.0551    30.0000
 SF-CAS              10:       -11.4729521440     1.5492    30.0000
 SF-CAS              11:       -11.4721282164     1.5717    30.0000
 SF-CAS              12:       -11.4717255099     1.5826    42.0000
 SF-CAS              13:       -11.2092926314     8.7239    30.0000
 SF-CAS              14:       -11.2037369306     8.8750    30.0000
 SF-CAS              15:       -11.2035454716     8.8802    30.0000
 SF-CAS              16:       -11.2032589712     8.8880    30.0000
 SF-CAS              17:       -11.2026549512     8.9045    30.0000
 SF-CAS              18:       -11.2020888028     8.9199    30.0000
 SF-CAS              19:       -11.2019061390     8.9249    30.0000
 SF-CAS              20:       -11.2018197684     8.9272    30.0000
 SF-CAS              21:       -11.2016730265     8.9312    30.0000
 SF-CAS              22:       -11.1825160890     9.4525    30.0000
 SF-CAS              23:       -11.1724333055     9.7269    30.0000
 SF-CAS              24:       -11.1721977707     9.7333    30.0000
 SF-CAS              25:       -11.1657425902     9.9089    30.0000
 SF-CAS              26:       -11.1612648589    10.0308    30.0000
 SF-CAS              27:       -11.1602839583    10.0575    30.0000
 SF-CAS              28:       -11.1557449768    10.1810    30.0000
 SF-CAS              29:       -11.1494096787    10.3534    30.0000
 SF-CAS              30:       -11.1456311242    10.4562    30.0000
 SF-CAS              31:       -11.1444903202    10.4872    30.0000
 SF-CAS              32:       -11.1420421277    10.5539    30.0000
 SF-CAS              33:       -11.1404995350    10.5958    30.0000
 SF-CAS              34:       -11.1392845326    10.6289    30.0000
 SF-CAS              35:       -11.1345460511    10.7578    30.0000
 SF-CAS              36:       -11.1281586593    10.9316    30.0000
 SF-CAS              37:       -11.1280278507    10.9352    30.0000
 SF-CAS              38:       -11.1226974335    11.0803    30.0000
 SF-CAS              39:       -11.1209143828    11.1288    30.0000
 SF-CAS              40:       -11.0873386973    12.0424    30.0000
 SF-CAS              41:       -11.0860978674    12.0762    30.0000
 SF-CAS              42:       -11.0859001363    12.0816    30.0000
 SF-CAS              43:       -11.0857499308    12.0857    30.0000
 SF-CAS              44:       -11.0854862478    12.0928    30.0000
 SF-CAS              45:       -11.0853945197    12.0953    30.0000
 SF-CAS              46:       -11.0830936555    12.1579    30.0000
 SF-CAS              47:       -11.0829153367    12.1628    30.0000
 SF-CAS              48:       -11.0817774833    12.1938    30.0000
 SF-CAS              49:       -11.0816015837    12.1985    30.0000
 SF-CAS              50:       -11.0814671367    12.2022    30.0000
 SF-CAS              51:       -11.0812533135    12.2080    30.0000
 SF-CAS              52:       -11.0810707412    12.2130    30.0000
 SF-CAS              53:       -11.0796920327    12.2505    30.0000
 SF-CAS              54:       -11.0791473322    12.2653    30.0000
 SF-CAS              55:       -11.0790836885    12.2671    30.0000
 SF-CAS              56:       -11.0785671784    12.2811    30.0000
 SF-CAS              57:       -11.0767963863    12.3293    30.0000
 SF-CAS              58:       -10.9863967700    14.7892    30.0000
 SF-CAS              59:       -10.9799884118    14.9636    30.0000
 SF-CAS              60:       -10.9786637468    14.9996    30.0000
 SF-CAS              61:       -10.9739094286    15.1290    30.0000
 SF-CAS              62:       -10.9696922179    15.2438    30.0000
 SF-CAS              63:       -10.9676362004    15.2997    30.0000
 SF-CAS              64:       -10.9643526695    15.3891    30.0000
 SF-CAS              65:       -10.9607342694    15.4875    30.0000
 SF-CAS              66:       -10.9536995258    15.6790    30.0000
 SF-CAS              67:       -10.9523374227    15.7160    30.0000
 SF-CAS              68:       -10.9472276081    15.8551    30.0000
 SF-CAS              69:       -10.9469206498    15.8634    30.0000
 SF-CAS              70:       -10.9454833272    15.9025    30.0000
 SF-CAS              71:       -10.9448303646    15.9203    30.0000
 SF-CAS              72:       -10.9445251355    15.9286    30.0000
 SF-CAS              73:       -10.9413986610    16.0137    30.0000
 SF-CAS              74:       -10.9404107501    16.0406    30.0000
 SF-CAS              75:       -10.9388224819    16.0838    30.0000
 SF-CAS              76:       -10.9382304297    16.0999    30.0000
 SF-CAS              77:       -10.9376333317    16.1162    30.0000
 SF-CAS              78:       -10.9372578779    16.1264    30.0000
 SF-CAS              79:       -10.9361622581    16.1562    30.0000
 SF-CAS              80:       -10.9344469995    16.2029    30.0000
 SF-CAS              81:       -10.9326406148    16.2520    30.0000
 SF-CAS              82:       -10.9314278444    16.2850    30.0000
 SF-CAS              83:       -10.9301250123    16.3205    30.0000
 SF-CAS              84:       -10.9271207449    16.4022    30.0000
 SF-CAS              85:       -10.9266368133    16.4154    30.0000
 SF-CAS              86:       -10.9264462048    16.4206    30.0000
 SF-CAS              87:       -10.9252367894    16.4535    30.0000
 SF-CAS              88:       -10.9238245389    16.4919    30.0000
 SF-CAS              89:       -10.9229802876    16.5149    30.0000
 SF-CAS              90:       -10.9220790345    16.5394    30.0000
 SF-CAS              91:       -10.9208330046    16.5733    30.0000
 SF-CAS              92:       -10.9194115245    16.6120    30.0000
 SF-CAS              93:       -10.9188829334    16.6264    30.0000
 SF-CAS              94:       -10.9169460220    16.6791    30.0000
 SF-CAS              95:       -10.9162999107    16.6967    30.0000
 SF-CAS              96:       -10.9157765057    16.7109    30.0000
 SF-CAS              97:       -10.9156207539    16.7152    30.0000
 SF-CAS              98:       -10.9155357770    16.7175    30.0000
 SF-CAS              99:       -10.9142648928    16.7520    30.0000
 SF-CAS             100:       -10.9104417947    16.8561    30.0000
 SF-CAS             101:       -10.9103051921    16.8598    30.0000
 SF-CAS             102:       -10.9100112826    16.8678    30.0000
 SF-CAS             103:       -10.9091819506    16.8904    30.0000
 SF-CAS             104:       -10.9066371780    16.9596    30.0000
 SF-CAS             105:       -10.9060980587    16.9743    30.0000
 SF-CAS             106:       -10.9057289655    16.9843    30.0000
 SF-CAS             107:       -10.9041002191    17.0286    30.0000
 SF-CAS             108:       -10.9030494399    17.0572    30.0000
 SF-CAS             109:       -10.9020430951    17.0846    30.0000
 SF-CAS             110:       -10.9009125285    17.1154    30.0000
 SF-CAS             111:       -10.8996280632    17.1503    30.0000
 SF-CAS             112:       -10.8984303154    17.1829    30.0000
 SF-CAS             113:       -10.8943128784    17.2950    30.0000
 SF-CAS             114:       -10.8928167261    17.3357    30.0000
 SF-CAS             115:       -10.8912990473    17.3770    30.0000
 SF-CAS             116:       -10.8888344033    17.4441    30.0000
 SF-CAS             117:       -10.8869422655    17.4955    30.0000
 SF-CAS             118:       -10.8859984906    17.5212    30.0000
 SF-CAS             119:       -10.8856072254    17.5319    30.0000
 SF-CAS             120:       -10.8853267922    17.5395    30.0000
 SF-CAS             121:       -10.8840647561    17.5738    30.0000
 SF-CAS             122:       -10.8832445246    17.5962    30.0000
 SF-CAS             123:       -10.8821507807    17.6259    30.0000
 SF-CAS             124:       -10.8819036041    17.6327    30.0000
 SF-CAS             125:       -10.8793104310    17.7032    30.0000
 SF-CAS             126:       -10.8759362775    17.7950    30.0000
 SF-CAS             127:       -10.7140326881    22.2007    30.0000
 SF-CAS             128:       -10.7042949414    22.4657    30.0000
 SF-CAS             129:       -10.6993730344    22.5996    30.0000
 SF-CAS             130:       -10.6983597732    22.6272    30.0000
 SF-CAS             131:       -10.6958723966    22.6949    30.0000
 SF-CAS             132:       -10.6901806327    22.8498    30.0000
 SF-CAS             133:       -10.6844270846    23.0063    30.0000
 SF-CAS             134:       -10.6813479336    23.0901    30.0000
 SF-CAS             135:       -10.6783791691    23.1709    30.0000
 SF-CAS             136:       -10.6756230385    23.2459    30.0000
 SF-CAS             137:       -10.6725017243    23.3308    30.0000
 SF-CAS             138:       -10.6709963524    23.3718    30.0000
 SF-CAS             139:       -10.6694347280    23.4143    30.0000
 SF-CAS             140:       -10.6689047274    23.4287    30.0000
 SF-CAS             141:       -10.6626384723    23.5992    30.0000
 SF-CAS             142:       -10.6615045692    23.6301    30.0000
 SF-CAS             143:       -10.6579218734    23.7276    30.0000
 SF-CAS             144:       -10.6464936059    24.0385    30.0000
 ===================================================================

              Active Space Coefficients > 0.20
 -------------------------------------------------------------------
 State  1                       Configuration         Coeff.   <S^2>
 -------------------------------------------------------------------
                  11111111111_ | ___________1      -0.656899  31.000
                  11111111_111 | ________1___      -0.292643  31.000
                  111111_11111 | ______1_____      -0.202982  31.000
                  111_11111111 | ___1________       0.210297  31.000
                  11_111111111 | __1_________       0.350129  31.000
                  _11111111111 | 1___________      -0.231587  31.000
 -------------------------------------------------------------------
 State  2                       Configuration         Coeff.   <S^2>
 -------------------------------------------------------------------
                  1111111111_1 | __________1_      -0.647260  31.000
                  1111111_1111 | _______1____      -0.309487  31.000
                  11111_111111 | _____1______      -0.318435  31.000
                  1111_1111111 | ____1_______       0.267758  31.000
                  11_111111111 | __1_________      -0.238457  31.000
 -------------------------------------------------------------------
 State  3                       Configuration         Coeff.   <S^2>
 -------------------------------------------------------------------
                  11111111111_ | ___________1      -0.348139  31.000
                  11111_111111 | _____1______      -0.280346  31.000
                  1111_1111111 | ____1_______      -0.272315  31.000
                  11_111111111 | __1_________      -0.658441  31.000
 -------------------------------------------------------------------
 State  4                       Configuration         Coeff.   <S^2>
 -------------------------------------------------------------------
                  11111111111_ | ___________1      -0.220836  31.000
                  11111111_111 | ________1___       0.234918  31.000
                  111111_11111 | ______1_____      -0.255913  31.000
                  11111_111111 | _____1______       0.450389  31.000
                  1111_1111111 | ____1_______       0.438898  31.000
                  111_11111111 | ___1________      -0.270925  31.000
                  _11111111111 | 1___________      -0.401265  31.000
 -------------------------------------------------------------------
 State  5                       Configuration         Coeff.   <S^2>
 -------------------------------------------------------------------
                  1111111111_1 | __________1_      -0.272946  31.000
                  111111111_11 | _________1__      -0.207566  31.000
                  11111111_111 | ________1___      -0.273705  31.000
                  1111111_1111 | _______1____      -0.208684  31.000
                  11111_111111 | _____1______       0.289534  31.000
                  1111_1111111 | ____1_______      -0.360352  31.000
                  111_11111111 | ___1________      -0.566974  31.000
 -------------------------------------------------------------------
 State  6                       Configuration         Coeff.   <S^2>
 -------------------------------------------------------------------
                  1111111111_1 | __________1_      -0.210301  31.000
                  111111111_11 | _________1__      -0.257236  31.000
                  11111111_111 | ________1___       0.583929  31.000
                  11111_111111 | _____1______       0.234525  31.000
                  1111_1111111 | ____1_______      -0.295419  31.000
                  111_11111111 | ___1________       0.385623  31.000
 -------------------------------------------------------------------
 State  7                       Configuration         Coeff.   <S^2>
 -------------------------------------------------------------------
                  111111111_11 | _________1__      -0.630979  31.000
                  1111111_1111 | _______1____       0.254927  31.000
                  11111_111111 | _____1______      -0.285801  31.000
                  1_1111111111 | _1__________       0.473683  31.000
 -------------------------------------------------------------------
 State  8                       Configuration         Coeff.   <S^2>
 -------------------------------------------------------------------
                  1111111111_1 | __________1_       0.201650  31.000
                  111111111_11 | _________1__       0.273532  31.000
                  1111111_1111 | _______1____      -0.619713  31.000
                  1_1111111111 | _1__________       0.547021  31.000
 -------------------------------------------------------------------
 State  9                       Configuration         Coeff.   <S^2>
 -------------------------------------------------------------------
                  111111_11111 | ______1_____       0.697454  31.000
                  _11111111111 | 1___________      -0.574591  31.000
 -------------------------------------------------------------------
 State  10                      Configuration         Coeff.   <S^2>
 -------------------------------------------------------------------
                  11111111111_ | ___________1      -0.336801  31.000
                  11111111_111 | ________1___      -0.345271  31.000
                  111111_11111 | ______1_____       0.359390  31.000
                  11111_111111 | _____1______       0.354235  31.000
                  1111_1111111 | ____1_______       0.356945  31.000
                  111_11111111 | ___1________       0.347625  31.000
                  11_111111111 | __1_________      -0.361917  31.000
                  _11111111111 | 1___________       0.359411  31.000
 -------------------------------------------------------------------
 State  11                      Configuration         Coeff.   <S^2>
 -------------------------------------------------------------------
                  11111111111_ | ___________1       0.203230  31.000
                  1111111111_1 | __________1_       0.401621  31.000
                  111111111_11 | _________1__      -0.409239  31.000
                  11111111_111 | ________1___      -0.205884  31.000
                  1111111_1111 | _______1____      -0.410635  31.000
                  111111_11111 | ______1_____      -0.204640  31.000
                  11111_111111 | _____1______       0.201229  31.000
                  1111_1111111 | ____1_______      -0.200306  31.000
                  111_11111111 | ___1________       0.205946  31.000
                  11_111111111 | __1_________      -0.205944  31.000
                  1_1111111111 | _1__________      -0.410371  31.000
                  _11111111111 | 1___________      -0.204687  31.000
 -------------------------------------------------------------------
 State  12                      Configuration         Coeff.   <S^2>
 -------------------------------------------------------------------
                  11111111111_ | ___________1      -0.288675  31.000
                  1111111111_1 | __________1_       0.288675  31.000
                  111111111_11 | _________1__      -0.288675  31.000
                  11111111_111 | ________1___       0.288675  31.000
                  1111111_1111 | _______1____      -0.288675  31.000
                  111111_11111 | ______1_____       0.288675  31.000
                  11111_111111 | _____1______      -0.288675  31.000
                  1111_1111111 | ____1_______       0.288675  31.000
                  111_11111111 | ___1________      -0.288675  31.000
                  11_111111111 | __1_________       0.288675  31.000
                  1_1111111111 | _1__________      -0.288675  31.000
                  _11111111111 | 1___________       0.288675  31.000
 -------------------------------------------------------------------
 State  13                      Configuration         Coeff.   <S^2>
 -------------------------------------------------------------------
                  11111111111_ | 1___________       0.300435  30.000
                  11111111111_ | ___1________      -0.248471  30.000
                  11111111111_ | ____1_______       0.298504  30.000
                  11111111111_ | _____1______       0.229428  30.000
                  11111111111_ | ______1_____       0.299639  30.000
                  11111111111_ | ________1___      -0.249454  30.000
                  11_111111111 | ___1________       0.209444  30.000
                  11_111111111 | _____1______      -0.249999  30.000
 -------------------------------------------------------------------
 State  14                      Configuration         Coeff.   <S^2>
 -------------------------------------------------------------------
                  11111111111_ | 1___________       0.218628  30.000
                  11111111111_ | ______1_____       0.204462  30.000
                  11111_111111 | ___1________      -0.226642  30.000
                  11111_111111 | ________1___      -0.227329  30.000
                  1111_1111111 | 1___________      -0.283292  30.000
                  1111_1111111 | ______1_____      -0.296410  30.000
                  1111_1111111 | ___________1       0.260547  30.000
                  11_111111111 | ___1________      -0.283022  30.000
                  11_111111111 | _____1______       0.225387  30.000
                  11_111111111 | ________1___      -0.281825  30.000
 -------------------------------------------------------------------
 State  15                      Configuration         Coeff.   <S^2>
 -------------------------------------------------------------------
                  11111111111_ | ____1_______      -0.292409  30.000
                  111111_11111 | 1___________       0.269199  30.000
                  1111_1111111 | ___________1       0.334406  30.000
                  11_111111111 | ___1________       0.215174  30.000
                  11_111111111 | _____1______      -0.233609  30.000
                  11_111111111 | ________1___       0.209724  30.000
                  _11111111111 | ______1_____       0.325581  30.000
                  _11111111111 | ___________1      -0.208176  30.000
 -------------------------------------------------------------------
 State  16                      Configuration         Coeff.   <S^2>
 -------------------------------------------------------------------
                  111111_11111 | 1___________      -0.301826  30.000
                  111111_11111 | ____1_______      -0.401781  30.000
                  111111_11111 | ______1_____       0.254253  31.000
                  111111_11111 | ___________1       0.440205  30.000
                  _11111111111 | 1___________      -0.214956  31.000
                  _11111111111 | ____1_______       0.375533  30.000
                  _11111111111 | ______1_____       0.216557  30.000
                  _11111111111 | ___________1      -0.376644  30.000
 -------------------------------------------------------------------
 State  17                      Configuration         Coeff.   <S^2>
 -------------------------------------------------------------------
                  1111111111_1 | _1__________      -0.208076  30.000
                  1111111111_1 | _________1__      -0.230367  30.000
                  11111111_111 | __1_________       0.213642  30.000
                  11111111_111 | ___1________      -0.260113  30.000
                  11111_111111 | __1_________      -0.324787  30.000
                  11111_111111 | ___1________       0.288794  30.000
                  11111_111111 | ________1___       0.256023  30.000
                  1111_1111111 | ______1_____      -0.210244  30.000
 -------------------------------------------------------------------
 State  18                      Configuration         Coeff.   <S^2>
 -------------------------------------------------------------------
                  1111111111_1 | _1__________      -0.340385  30.000
                  1111111111_1 | _______1____       0.308760  30.000
                  1111111111_1 | _________1__      -0.313655  30.000
                  1111111111_1 | __________1_      -0.212895  31.000
                  11111111_111 | __1_________      -0.284157  30.000
                  11111111_111 | ___1________       0.244831  30.000
                  1111111_1111 | _________1__      -0.202618  30.000
                  11111_111111 | __1_________       0.215223  30.000
                  11111_111111 | ___1________      -0.261747  30.000
 -------------------------------------------------------------------
 State  19                      Configuration         Coeff.   <S^2>
 -------------------------------------------------------------------
                  11111111_111 | __1_________      -0.277875  30.000
                  11111111_111 | _____1______      -0.335061  30.000
                  11111_111111 | ________1___       0.250904  30.000
                  111_11111111 | __1_________      -0.434680  30.000
                  111_11111111 | ___1________      -0.260878  31.000
                  111_11111111 | _____1______      -0.390034  30.000
                  111_11111111 | ________1___       0.349853  30.000
 -------------------------------------------------------------------
 State  20                      Configuration         Coeff.   <S^2>
 -------------------------------------------------------------------
                  111111111_11 | _1__________      -0.420454  30.000
                  111111111_11 | _______1____       0.338904  30.000
                  111111111_11 | _________1__       0.267823  31.000
                  111111111_11 | __________1_       0.444570  30.000
                  1111111_1111 | _1__________      -0.358998  30.000
                  1111111_1111 | __________1_       0.347532  30.000
 -------------------------------------------------------------------
 State  21                      Configuration         Coeff.   <S^2>
 -------------------------------------------------------------------
                  111111111_11 | _______1____      -0.219096  30.000
                  1111111_1111 | _________1__      -0.327937  30.000
                  1111111_1111 | __________1_       0.311062  30.000
                  1_1111111111 | _1__________       0.279663  31.000
                  1_1111111111 | _______1____       0.373828  30.000
                  1_1111111111 | _________1__      -0.426944  30.000
                  1_1111111111 | __________1_       0.457366  30.000
 -------------------------------------------------------------------
 State  22                      Configuration         Coeff.   <S^2>
 -------------------------------------------------------------------
                  11111111111_ | __1_________       0.328479  30.000
                  11111111111_ | ___1________      -0.407686  30.000
                  11111111111_ | _____1______       0.382293  30.000
                  11111111111_ | ________1___      -0.414223  30.000
 -------------------------------------------------------------------
 State  23                      Configuration         Coeff.   <S^2>
 -------------------------------------------------------------------
                  11111111_111 | 1___________      -0.336614  30.000
                  11111111_111 | ____1_______      -0.341325  30.000
                  11111111_111 | ______1_____      -0.350799  30.000
                  11111111_111 | ___________1       0.485731  30.000
                  111_11111111 | 1___________      -0.258091  30.000
                  111_11111111 | ____1_______      -0.252519  30.000
                  111_11111111 | ______1_____      -0.248004  30.000
                  111_11111111 | ___________1       0.352607  30.000
 -------------------------------------------------------------------
 State  24                      Configuration         Coeff.   <S^2>
 -------------------------------------------------------------------
                  1111111111_1 | 1___________      -0.244065  30.000
                  1111111111_1 | ____1_______      -0.315125  30.000
                  1111111111_1 | ______1_____      -0.257445  30.000
                  1111111111_1 | ___________1       0.320350  30.000
                  11111_111111 | 1___________      -0.210423  30.000
                  11111_111111 | ____1_______      -0.231094  30.000
                  11111_111111 | ______1_____      -0.211972  30.000
                  11111_111111 | ___________1       0.284540  30.000
                  111_11111111 | 1___________      -0.200515  30.000
                  111_11111111 | ___________1       0.277187  30.000
 -------------------------------------------------------------------
 State  25                      Configuration         Coeff.   <S^2>
 -------------------------------------------------------------------
                  1111111111_1 | _____1______       0.233723  30.000
                  11111_111111 | _1__________       0.219625  30.000
                  11111_111111 | _______1____      -0.210686  30.000
                  11111_111111 | _________1__       0.250530  30.000
                  11111_111111 | __________1_      -0.290053  30.000
 -------------------------------------------------------------------
 State  26                      Configuration         Coeff.   <S^2>
 -------------------------------------------------------------------
                  11111111111_ | _1__________       0.209054  30.000
                  11111111111_ | __________1_      -0.250459  30.000
                  11111_111111 | ___________1       0.210723  30.000
                  1111_1111111 | _1__________      -0.288302  30.000
                  1111_1111111 | _______1____       0.263017  30.000
                  1111_1111111 | _________1__      -0.257048  30.000
                  1111_1111111 | __________1_       0.341096  30.000
 -------------------------------------------------------------------
 State  27                      Configuration         Coeff.   <S^2>
 -------------------------------------------------------------------
                  11111_111111 | _1__________       0.299588  30.000
                  11111_111111 | _______1____      -0.290716  30.000
                  11111_111111 | _________1__       0.347516  30.000
                  11111_111111 | __________1_      -0.368530  30.000
                  1111_1111111 | __________1_      -0.216371  30.000
 -------------------------------------------------------------------
 State  28                      Configuration         Coeff.   <S^2>
 -------------------------------------------------------------------
                  1111111111_1 | 1___________       0.213122  30.000
                  1111111111_1 | ____1_______       0.278766  30.000
                  1111111111_1 | _____1______       0.256834  30.000
                  1111111111_1 | ______1_____       0.226017  30.000
                  1111111111_1 | ___________1      -0.210044  30.000
 -------------------------------------------------------------------
 State  29                      Configuration         Coeff.   <S^2>
 -------------------------------------------------------------------
                  11111111111_ | _1__________      -0.234686  30.000
                  11111111111_ | _______1____       0.223025  30.000
                  11111111111_ | _________1__      -0.230316  30.000
                  11111111111_ | __________1_       0.284957  30.000
                  111111_11111 | _1__________       0.215314  30.000
                  111111_11111 | _______1____      -0.207126  30.000
                  111111_11111 | _________1__       0.205590  30.000
                  111111_11111 | __________1_      -0.255582  30.000
                  1111_1111111 | _1__________      -0.204876  30.000
                  1111_1111111 | __________1_       0.245631  30.000
 -------------------------------------------------------------------
 State  30                      Configuration         Coeff.   <S^2>
 -------------------------------------------------------------------
                  111111111_11 | __1_________       0.255167  30.000
                  111111111_11 | ___1________      -0.276399  30.000
                  111111111_11 | _____1______       0.340758  30.000
                  111111111_11 | ________1___      -0.276743  30.000
                  111111111_11 | ___________1       0.239915  30.000
                  1_1111111111 | ___1________       0.213823  30.000
                  1_1111111111 | _____1______      -0.244805  30.000
                  1_1111111111 | ________1___       0.211982  30.000
                  1_1111111111 | ___________1      -0.212691  30.000
 -------------------------------------------------------------------
 State  31                      Configuration         Coeff.   <S^2>
 -------------------------------------------------------------------
                  111111_11111 | __1_________       0.311762  30.000
                  111111_11111 | ___1________      -0.362268  30.000
                  111111_11111 | _____1______       0.350833  30.000
                  111111_11111 | ________1___      -0.382223  30.000
                  _11111111111 | __1_________      -0.270754  30.000
                  _11111111111 | ___1________       0.328434  30.000
                  _11111111111 | _____1______      -0.305984  30.000
                  _11111111111 | ________1___       0.319937  30.000
 -------------------------------------------------------------------
 State  32                      Configuration         Coeff.   <S^2>
 -------------------------------------------------------------------
                  11_111111111 | 1___________      -0.289085  30.000
                  11_111111111 | ____1_______      -0.294836  30.000
                  11_111111111 | ______1_____      -0.289784  30.000
                  11_111111111 | ___________1       0.345460  30.000
 -------------------------------------------------------------------
 State  33                      Configuration         Coeff.   <S^2>
 -------------------------------------------------------------------
                  1111_1111111 | ___1________      -0.211614  30.000
                  1111_1111111 | _____1______       0.205823  30.000
                  1111_1111111 | ________1___      -0.210232  30.000
                  11_111111111 | 1___________       0.209850  30.000
                  11_111111111 | ____1_______       0.207789  30.000
                  11_111111111 | ______1_____       0.209517  30.000
                  11_111111111 | ___________1      -0.245374  30.000
 -------------------------------------------------------------------
 State  34                      Configuration         Coeff.   <S^2>
 -------------------------------------------------------------------
                  1111111_1111 | 1___________      -0.212850  30.000
                  1111111_1111 | ___1________      -0.209116  30.000
                  1111111_1111 | ____1_______      -0.250949  30.000
                  1111111_1111 | _____1______       0.236854  30.000
                  1111111_1111 | ______1_____      -0.220803  30.000
                  1111111_1111 | ________1___      -0.214858  30.000
                  1111111_1111 | ___________1       0.274677  30.000
                  1_1111111111 | 1___________      -0.243611  30.000
                  1_1111111111 | ____1_______      -0.297168  30.000
                  1_1111111111 | ______1_____      -0.245374  30.000
                  1_1111111111 | ___________1       0.265452  30.000
 -------------------------------------------------------------------
 State  35                      Configuration         Coeff.   <S^2>
 -------------------------------------------------------------------
                  11111111_111 | _1__________       0.317472  30.000
                  11111111_111 | _______1____      -0.313613  30.000
                  11111111_111 | _________1__       0.339636  30.000
                  11111111_111 | __________1_      -0.374976  30.000
                  111_11111111 | _1__________       0.328908  30.000
                  111_11111111 | _______1____      -0.314870  30.000
                  111_11111111 | _________1__       0.347114  30.000
                  111_11111111 | __________1_      -0.374081  30.000
 -------------------------------------------------------------------
 State  36                      Configuration         Coeff.   <S^2>
 -------------------------------------------------------------------
                  111111_11111 | _1__________      -0.326301  30.000
                  111111_11111 | _______1____       0.317055  30.000
                  111111_11111 | _________1__      -0.310795  30.000
                  111111_11111 | __________1_       0.370566  30.000
                  _11111111111 | _1__________       0.341037  30.000
                  _11111111111 | _______1____      -0.322001  30.000
                  _11111111111 | _________1__       0.321380  30.000
                  _11111111111 | __________1_      -0.372566  30.000
 -------------------------------------------------------------------
 State  37                      Configuration         Coeff.   <S^2>
 -------------------------------------------------------------------
                  111111111_11 | 1___________       0.298311  30.000
                  111111111_11 | ____1_______       0.342926  30.000
                  111111111_11 | ______1_____       0.303335  30.000
                  111111111_11 | ___________1      -0.305791  30.000
                  1_1111111111 | __1_________      -0.228806  30.000
                  1_1111111111 | ___1________       0.228377  30.000
                  1_1111111111 | ____1_______      -0.201805  30.000
                  1_1111111111 | _____1______      -0.266093  30.000
                  1_1111111111 | ________1___       0.224102  30.000
 -------------------------------------------------------------------
 State  38                      Configuration         Coeff.   <S^2>
 -------------------------------------------------------------------
                  1111111_1111 | 1___________       0.241225  30.000
                  1111111_1111 | __1_________       0.304810  30.000
                  1111111_1111 | ___1________      -0.294962  30.000
                  1111111_1111 | ____1_______       0.284495  30.000
                  1111111_1111 | _____1______       0.347582  30.000
                  1111111_1111 | ______1_____       0.250322  30.000
                  1111111_1111 | ________1___      -0.298355  30.000
                  1111111_1111 | ___________1      -0.202922  30.000
                  1_1111111111 | __1_________       0.216075  30.000
                  1_1111111111 | ___1________      -0.221609  30.000
                  1_1111111111 | _____1______       0.251128  30.000
                  1_1111111111 | ________1___      -0.217904  30.000
 -------------------------------------------------------------------
 State  39                      Configuration         Coeff.   <S^2>
 -------------------------------------------------------------------
                  11111111111_ | _1__________       0.208050  30.000
                  11111111111_ | __________1_      -0.256699  30.000
                  11_111111111 | _1__________       0.326446  30.000
                  11_111111111 | _______1____      -0.321194  30.000
                  11_111111111 | _________1__       0.357996  30.000
                  11_111111111 | __________1_      -0.368146  30.000
 -------------------------------------------------------------------
 State  40                      Configuration         Coeff.   <S^2>
 -------------------------------------------------------------------
                  11111111_111 | __1_________       0.213559  30.000
                  11111111_111 | ___1________       0.393343  30.000
                  11111111_111 | _____1______       0.233624  30.000
                  11111_111111 | __1_________      -0.368387  30.000
                  11111_111111 | ___1________      -0.205420  30.000
                  11111_111111 | ________1___      -0.219869  30.000
                  111_11111111 | __1_________      -0.214046  30.000
                  111_11111111 | ________1___      -0.351292  30.000
                  11_111111111 | ___1________       0.234763  30.000
                  11_111111111 | _____1______       0.361934  30.000
 -------------------------------------------------------------------
 State  41                      Configuration         Coeff.   <S^2>
 -------------------------------------------------------------------
                  1111111111_1 | _1__________      -0.273443  30.000
                  1111111111_1 | _________1__       0.426765  30.000
                  111111111_11 | _______1____       0.229013  30.000
                  111111111_11 | __________1_      -0.347859  30.000
                  1111111_1111 | _1__________      -0.389956  30.000
                  1111111_1111 | _________1__       0.264229  30.000
                  1_1111111111 | _______1____      -0.381452  30.000
                  1_1111111111 | __________1_       0.221004  30.000
 -------------------------------------------------------------------
 State  42                      Configuration         Coeff.   <S^2>
 -------------------------------------------------------------------
                  11111111_111 | __1_________      -0.321362  30.000
                  11111111_111 | _____1______       0.312437  30.000
                  11111_111111 | ___1________       0.356040  30.000
                  11111_111111 | ________1___      -0.319720  30.000
                  111_11111111 | __1_________      -0.284785  30.000
                  111_11111111 | _____1______       0.310990  30.000
                  11_111111111 | ___1________       0.339015  30.000
                  11_111111111 | ________1___      -0.338577  30.000
 -------------------------------------------------------------------
 State  43                      Configuration         Coeff.   <S^2>
 -------------------------------------------------------------------
                  11111111111_ | ____1_______       0.309253  30.000
                  1111111111_1 | _1__________       0.252987  30.000
                  1111111111_1 | _______1____       0.371848  30.000
                  111111111_11 | _1__________      -0.346149  30.000
                  111111111_11 | _______1____      -0.236032  30.000
                  1111111_1111 | __________1_      -0.275316  30.000
                  111111_11111 | 1___________       0.205603  30.000
                  1_1111111111 | _________1__      -0.305452  30.000
                  _11111111111 | ______1_____       0.208090  30.000
 -------------------------------------------------------------------
 State  44                      Configuration         Coeff.   <S^2>
 -------------------------------------------------------------------
[...]
   697     3224.60957764    31117.76308115        6.00000000      cm-1
   698     3227.91089205    31121.06439555        6.00000000      cm-1
   699     3229.73676671    31122.89027021       20.00000000      cm-1
   700     3229.98424420    31123.13774770        6.00000000      cm-1
   701     3230.73698834    31123.89049185       12.00000000      cm-1
   702     3233.80543882    31126.95894232        6.00000000      cm-1
   703     3234.15109398    31127.30459748        2.00000000      cm-1
   704     3238.02908154    31131.18258504       12.00000000      cm-1
   705     3241.69851728    31134.85202079        6.00000000      cm-1
   706     3244.90695934    31138.06046284       12.00000000      cm-1
   707     3245.55296998    31138.70647349        6.00000000      cm-1
   708     3246.27202965    31139.42553316       20.00000000      cm-1
   709     3247.80059766    31140.95410117       12.00000000      cm-1
   710     3252.57252857    31145.72603207       20.00000000      cm-1
   711     3255.07929907    31148.23280258        2.00000000      cm-1
   712     3255.56717890    31148.72068241        6.00000000      cm-1
   713     3258.80502475    31151.95852825        6.00000000      cm-1
   714     3259.10143325    31152.25493675       12.00000000      cm-1
   715     3259.16006384    31152.31356734       -0.00000000      cm-1
   716     3259.31805942    31152.47156293       12.00000000      cm-1
   717     3261.95192012    31155.10542362        6.00000000      cm-1
   718     3269.21799271    31162.37149621        6.00000000      cm-1
   719     3269.84482317    31162.99832668        2.00000000      cm-1
   720     3272.92638505    31166.07988856       12.00000000      cm-1
   721     3273.46201765    31166.61552115       20.00000000      cm-1
   722     3276.22010253    31169.37360603       12.00000000      cm-1
   723     3276.24372570    31169.39722921        6.00000000      cm-1
   724     3276.84345024    31169.99695375       12.00000000      cm-1
   725     3277.94687138    31171.10037488        2.00000000      cm-1
   726     3279.97223638    31173.12573988        6.00000000      cm-1
   727     3280.37207260    31173.52557610        6.00000000      cm-1
   728     3285.49233144    31178.64583494       12.00000000      cm-1
   729     3288.01659827    31181.17010177       12.00000000      cm-1
   730     3291.01545264    31184.16895614       12.00000000      cm-1
   731     3292.05300890    31185.20651241        2.00000000      cm-1
   732     3294.16914391    31187.32264741        6.00000000      cm-1
   733     3295.96330666    31189.11681016       12.00000000      cm-1
   734     3296.92479033    31190.07829383       -0.00000000      cm-1
   735     3297.64678525    31190.80028876       20.00000000      cm-1
   736     3300.66243976    31193.81594326       12.00000000      cm-1
   737     3301.30589870    31194.45940221        6.00000000      cm-1
   738     3312.44865587    31205.60215937       20.00000000      cm-1
   739     3315.20577791    31208.35928142       12.00000000      cm-1
   740     3319.32333234    31212.47683584       20.00000000      cm-1
   741     3323.35729368    31216.51079718        6.00000000      cm-1
   742     3325.57307937    31218.72658288       12.00000000      cm-1
   743     3326.09044306    31219.24394656       20.00000000      cm-1
   744     3328.62558799    31221.77909149       12.00000000      cm-1
   745     3328.77361439    31221.92711789       20.00000000      cm-1
   746     3335.32380045    31228.47730395       12.00000000      cm-1
   747     3339.31771706    31232.47122056        6.00000000      cm-1
   748     3340.51170057    31233.66520407       20.00000000      cm-1
   749     3342.98090758    31236.13441108        6.00000000      cm-1
   750     3345.14686703    31238.30037053       12.00000000      cm-1
   751     3345.56057761    31238.71408111       20.00000000      cm-1
   752     3348.55152957    31241.70503307       20.00000000      cm-1
   753     3352.16233331    31245.31583682       20.00000000      cm-1
   754     3365.41956748    31258.57307098       20.00000000      cm-1
   755     3383.27888076    31276.43238427       20.00000000      cm-1
   756     3399.59906445    31292.75256796       20.00000000      cm-1
   757     3404.78387102    31297.93737452       20.00000000      cm-1
   758     8787.60844034    36680.76194384        0.00000000      cm-1
   759     8851.10796172    36744.26146523        2.00000000      cm-1
   760     8878.19232707    36771.34583058        0.00000000      cm-1
   761     8941.73432864    36834.88783215        2.00000000      cm-1
   762     8976.44656349    36869.60006700        6.00000000      cm-1
   763     9064.36229437    36957.51579787       -0.00000000      cm-1
   764     9067.15838759    36960.31189109        6.00000000      cm-1
   765     9080.12613037    36973.27963387        2.00000000      cm-1
   766     9086.74819176    36979.90169527        0.00000000      cm-1
   767     9101.14723270    36994.30073621        2.00000000      cm-1
   768     9111.54177892    37004.69528242        6.00000000      cm-1
   769     9129.83990025    37022.99340376        6.00000000      cm-1
   770     9158.38895651    37051.54246002       12.00000000      cm-1
   771     9160.50745107    37053.66095457       12.00000000      cm-1
   772     9172.61924608    37065.77274958       12.00000000      cm-1
   773     9187.21293771    37080.36644121       -0.00000000      cm-1
   774     9202.54991342    37095.70341692        2.00000000      cm-1
   775     9220.34627157    37113.49977508       20.00000000      cm-1
   776     9229.18434549    37122.33784900       20.00000000      cm-1
   777     9233.11634972    37126.26985322        6.00000000      cm-1
   778     9251.34862518    37144.50212869       12.00000000      cm-1
   779     9267.45659221    37160.61009572       -0.00000000      cm-1
   780     9278.70086140    37171.85436491       12.00000000      cm-1
   781     9282.54397454    37175.69747804        2.00000000      cm-1
   782     9312.61168156    37205.76518506        6.00000000      cm-1
   783     9338.99521629    37232.14871979       20.00000000      cm-1
   784     9357.44937440    37250.60287790       12.00000000      cm-1
   785     9399.06794148    37292.22144498       20.00000000      cm-1
   786     9416.75067395    37309.90417745       20.00000000      cm-1
   787     9490.08358361    37383.23708711       20.00000000      cm-1
   788    14828.97403146    42722.12753497        2.00000000      cm-1
   789    14856.12047807    42749.27398158        6.00000000      cm-1
   790    14894.85943580    42788.01293930       12.00000000      cm-1
   791    14934.56580005    42827.71930355        2.00000000      cm-1
   792    14982.77916231    42875.93266581        2.00000000      cm-1
   793    14985.66900542    42878.82250892        6.00000000      cm-1
   794    14989.12836634    42882.28186985        2.00000000      cm-1
   795    14992.93716022    42886.09066372        0.00000000      cm-1
   796    14998.46777199    42891.62127549       -0.00000000      cm-1
   797    15005.84390441    42898.99740791        0.00000000      cm-1
   798    15009.62707073    42902.78057424        2.00000000      cm-1
   799    15020.60923309    42913.76273660        2.00000000      cm-1
   800    15024.55587474    42917.70937825        2.00000000      cm-1
   801    15039.08568865    42932.23919215        6.00000000      cm-1
   802    15041.87389220    42935.02739570        2.00000000      cm-1
   803    15047.76671339    42940.92021689        2.00000000      cm-1
   804    15053.34337310    42946.49687661        6.00000000      cm-1
   805    15060.76869714    42953.92220065       12.00000000      cm-1
   806    15062.50507733    42955.65858083        2.00000000      cm-1
   807    15063.64224663    42956.79575013        6.00000000      cm-1
   808    15077.62347485    42970.77697835        6.00000000      cm-1
   809    15083.04975585    42976.20325936       -0.00000000      cm-1
   810    15083.40176177    42976.55526528       12.00000000      cm-1
   811    15086.70032910    42979.85383261        2.00000000      cm-1
   812    15087.33059782    42980.48410133       12.00000000      cm-1
   813    15096.18774219    42989.34124570        2.00000000      cm-1
   814    15096.79382568    42989.94732918        6.00000000      cm-1
   815    15105.72068257    42998.87418607        6.00000000      cm-1
   816    15110.41840754    43003.57191104        2.00000000      cm-1
   817    15139.16891504    43032.32241855        6.00000000      cm-1
   818    15146.51984308    43039.67334659       12.00000000      cm-1
   819    15153.63192868    43046.78543218       20.00000000      cm-1
   820    15156.07715238    43049.23065588        6.00000000      cm-1
   821    15163.28159587    43056.43509937       12.00000000      cm-1
   822    15174.81427972    43067.96778322        2.00000000      cm-1
   823    15182.10965960    43075.26316310        0.00000000      cm-1
   824    15190.11587933    43083.26938284        2.00000000      cm-1
   825    15194.14955157    43087.30305508        6.00000000      cm-1
   826    15206.49958219    43099.65308569       -0.00000000      cm-1
   827    15212.09788943    43105.25139293       20.00000000      cm-1
   828    15213.44349165    43106.59699515        6.00000000      cm-1
   829    15214.87098207    43108.02448558        2.00000000      cm-1
   830    15226.35783468    43119.51133818       12.00000000      cm-1
   831    15229.37817428    43122.53167778        2.00000000      cm-1
   832    15240.41419639    43133.56769990        6.00000000      cm-1
   833    15246.94695677    43140.10046027       12.00000000      cm-1
   834    15253.78990913    43146.94341264        6.00000000      cm-1
   835    15255.61286647    43148.76636998       12.00000000      cm-1
   836    15257.58974113    43150.74324464        6.00000000      cm-1
   837    15269.73055277    43162.88405627        6.00000000      cm-1
   838    15274.53821635    43167.69171986       -0.00000000      cm-1
   839    15280.88090199    43174.03440550       20.00000000      cm-1
   840    15289.42416279    43182.57766630       12.00000000      cm-1
   841    15291.17023174    43184.32373524       30.00000000      cm-1
   842    15293.27876610    43186.43226960        2.00000000      cm-1
   843    15302.01715545    43195.17065895       12.00000000      cm-1
   844    15321.41268710    43214.56619060        6.00000000      cm-1
   845    15326.04619914    43219.19970264       12.00000000      cm-1
   846    15339.15068233    43232.30418584       12.00000000      cm-1
   847    15353.09899589    43246.25249940       20.00000000      cm-1
   848    15360.52661767    43253.68012118        2.00000000      cm-1
   849    15360.78184887    43253.93535237       12.00000000      cm-1
   850    15364.29556594    43257.44906944       20.00000000      cm-1
   851    15384.51118460    43277.66468810       -0.00000000      cm-1
   852    15396.75043291    43289.90393641        6.00000000      cm-1
   853    15397.44340577    43290.59690928        2.00000000      cm-1
   854    15400.15370604    43293.30720954       12.00000000      cm-1
   855    15403.54745084    43296.70095434        6.00000000      cm-1
   856    15407.11833160    43300.27183510       20.00000000      cm-1
   857    15426.34317781    43319.49668132        2.00000000      cm-1
   858    15428.36850566    43321.52200916        6.00000000      cm-1
   859    15438.58925527    43331.74275878       20.00000000      cm-1
   860    15449.36054057    43342.51404408       12.00000000      cm-1
   861    15454.63593231    43347.78943581        2.00000000      cm-1
   862    15458.43450841    43351.58801191        2.00000000      cm-1
   863    15459.95199158    43353.10549508       20.00000000      cm-1
   864    15462.03861838    43355.19212188        6.00000000      cm-1
   865    15462.13045665    43355.28396016        0.00000000      cm-1
   866    15465.86928092    43359.02278442       12.00000000      cm-1
   867    15469.35361282    43362.50711632       12.00000000      cm-1
   868    15477.11089527    43370.26439877        2.00000000      cm-1
   869    15485.10785595    43378.26135946       12.00000000      cm-1
   870    15485.52791885    43378.68142236        6.00000000      cm-1
   871    15498.90537126    43392.05887476        6.00000000      cm-1
   872    15507.13254433    43400.28604784        6.00000000      cm-1
   873    15513.48053548    43406.63403898       20.00000000      cm-1
   874    15516.03603259    43409.18953609       12.00000000      cm-1
   875    15520.26662394    43413.42012744        2.00000000      cm-1
   876    15525.89587160    43419.04937510       20.00000000      cm-1
   877    15528.43417009    43421.58767359        2.00000000      cm-1
   878    15531.20278949    43424.35629299       12.00000000      cm-1
   879    15535.07055618    43428.22405968       30.00000000      cm-1
   880    15543.94628766    43437.09979117        6.00000000      cm-1
   881    15551.80297259    43444.95647609       12.00000000      cm-1
   882    15554.47877987    43447.63228338        6.00000000      cm-1
   883    15556.05057027    43449.20407377        2.00000000      cm-1
   884    15556.61280743    43449.76631094       12.00000000      cm-1
   885    15559.27210464    43452.42560814       20.00000000      cm-1
   886    15572.81949824    43465.97300174        6.00000000      cm-1
   887    15575.34606949    43468.49957300       12.00000000      cm-1
   888    15579.18731250    43472.34081601       20.00000000      cm-1
   889    15592.10980348    43485.26330698       12.00000000      cm-1
   890    15592.60341779    43485.75692130       20.00000000      cm-1
   891    15592.91197822    43486.06548173       12.00000000      cm-1
   892    15600.07809389    43493.23159740       20.00000000      cm-1
   893    15608.53625589    43501.68975939       30.00000000      cm-1
   894    15616.13236142    43509.28586493       20.00000000      cm-1
   895    15638.96758136    43532.12108487       20.00000000      cm-1
   896    15641.45619839    43534.60970190       20.00000000      cm-1
   897    15648.25726618    43541.41076969       30.00000000      cm-1
   898    15659.99589297    43553.14939648       12.00000000      cm-1
   899    15667.50340431    43560.65690781       20.00000000      cm-1
   900    15692.17340748    43585.32691099       30.00000000      cm-1
   901    15694.99062770    43588.14413121       30.00000000      cm-1
   902    15704.51981660    43597.67332010       30.00000000      cm-1
   903    15726.26649538    43619.41999888       30.00000000      cm-1
   904    15735.50218442    43628.65568792       30.00000000      cm-1
   905    27323.65411593    55216.80761943        6.00000000      cm-1
   906    27343.22943618    55236.38293968        2.00000000      cm-1
   907    27372.58823676    55265.74174027        6.00000000      cm-1
   908    27416.91053650    55310.06404001       12.00000000      cm-1
   909    27424.36592429    55317.51942780        0.00000000      cm-1
   910    27439.20361425    55332.35711776        2.00000000      cm-1
   911    27468.84421510    55361.99771860        6.00000000      cm-1
   912    27513.21749782    55406.37100132       12.00000000      cm-1
   913    27572.21857362    55465.37207713       20.00000000      cm-1
   914    27578.90981965    55472.06332315        2.00000000      cm-1
   915    27608.83493194    55501.98843544        6.00000000      cm-1
   916    27653.55756576    55546.71106926       12.00000000      cm-1
   917    27712.88389178    55606.03739528       20.00000000      cm-1
   918    27786.56249914    55679.71600264       30.00000000      cm-1
   919    27787.87395660    55681.02746010        6.00000000      cm-1
   920    27833.10761709    55726.26112059       12.00000000      cm-1
   921    27893.04889297    55786.20239647       20.00000000      cm-1
   922    27967.39370201    55860.54720551       30.00000000      cm-1
   923    28055.77757753    55948.93108103       42.00000000      cm-1
 Analysis of SCF Wavefunction

 --------------------------------------------------------------

                    Orbital Energies (a.u.)
 --------------------------------------------------------------

 Alpha MOs
 -- Occupied --
 -0.914  -0.914  -0.516  -0.515  -0.516  -0.516  -0.515  -0.516
 -0.516  -0.518  -0.516  -0.516  -0.516  -0.516
 -- Virtual --
  0.921   1.073   1.125   1.148   0.975   1.063   1.134   1.120
  1.038   1.026   0.944   0.938   0.929   0.931

 Beta MOs
 -- Occupied --
 -0.914  -0.914
 -- Virtual --
  0.147   0.149   0.147   0.147   0.147   0.147   0.148   0.148
  0.147   0.147   0.148   0.147   1.095   1.212   1.226   1.237
  1.130   1.228   1.236   1.222   1.209   1.198   1.111   1.106
  1.099   1.092
 --------------------------------------------------------------

          Ground-State Mulliken Net Atomic Charges

     Atom                 Charge (a.u.)
  ----------------------------------------
      1 H                     0.000099
      2 H                     0.000008
      3 H                    -0.000007
      4 H                     0.000004
      5 H                    -0.000010
      6 H                     0.000006
      7 H                     0.000011
      8 H                    -0.000009
      9 H                     0.000066
     10 H                    -0.000032
     11 H                    -0.000066
     12 H                    -0.000069
     13 He                   -0.000000
     14 He                   -0.000000
  ----------------------------------------
  Sum of atomic charges =     0.000000

 -----------------------------------------------------------------
                    Cartesian Multipole Moments
 -----------------------------------------------------------------
    Charge (ESU x 10^10)
                 0.0000
    Dipole Moment (Debye)
         X      -0.0004      Y      -0.0005      Z       0.0002
       Tot       0.0007
    Quadrupole Moments (Debye-Ang)
        XX     -19.6047     XY       0.0140     YY     -19.5258
        XZ      -0.0001     YZ      -0.0036     ZZ     -19.5136
    Octopole Moments (Debye-Ang^2)
       XXX     -19.5107    XXY     -36.8976    XYY      -4.8367
       YYY    -113.3082    XXZ     -22.9223    XYZ      -0.0091
       YYZ     -23.7960    XZZ      -4.1142    YZZ     -36.8093
       ZZZ     -70.7106
    Hexadecapole Moments (Debye-Ang^3)
      XXXX   -1642.4363   XXXY     -14.8772   XXYY    -584.1060
      XYYY     -12.4389   YYYY   -1844.8944   XXXZ       3.4172
      XXYZ    -215.0246   XYYZ       0.0490   YYYZ    -655.0443
      XXZZ    -491.0328   XYZZ      -3.9746   YYZZ    -534.0913
      XZZZ       4.4600   YZZZ    -649.4750   ZZZZ   -1318.2289
 -----------------------------------------------------------------
 JobOver = TRUE
Archival summary:
1\1\sinatra\SP\ROProcedureUnspecified\6-31G*\e212()\nmayhall\MonMar2016:11:052017MonMar2016:11:052017\0\\#,ROProcedureUnspecified,6-31G*,\\0,13\H\H,1,1.8108\H,2,1.8111,1,60.0291\H,3,1.81133,2,60.0389,1,70.5227,0\H,1,2.837,2,152.386,3,178.05,0\H,5,1.8112,1,73.0863,2,-68.5028,0\H,6,1.81121,5,60.0005,1,-92.9521,0\H,7,1.81039,6,60.0315,5,-70.571,0\H,3,3.22308,2,141.713,1,-24.773,0\H,9,1.81065,3,134.551,2,-173.704,0\H,9,1.81086,3,149.981,2,-66.049,0\H,10,1.81131,9,60.0237,3,76.1055,0\He,10,14.2686,9,123,3,-145.172,0\He,10,14.5029,9,123.147,3,-33.0754,0\\HF=-11.4717255\\@

 Total job time:  0.51s(wall), 0.51s(cpu) 
 Mon Mar 20 16:11:05 2017

        *************************************************************
        *                                                           *
        *  Thank you very much for using Q-Chem.  Have a nice day.  *
        *                                                           *
        *************************************************************


*** MISSION COMPLETED -- STARFLEET OUT ***

