                  Welcome to Q-Chem
     A Quantum Leap Into The Future Of Chemistry


 Q-Chem 4.3, Q-Chem, Inc., Pleasanton, CA (2015)

 Y. Shao,  Z. Gan,  E. Epifanovsky,  A. T. B. Gilbert,  M. Wormit,  
 J. Kussmann,  A. W. Lange,  A. Behn,  J. Deng,  X. Feng,  D. Ghosh,  
 M. Goldey,  P. R. Horn,  L. D. Jacobson,  I. Kaliman,  R. Z. Khaliullin,  
 T. Kus,  A. Landau,  J. Liu,  E. I. Proynov,  Y. M. Rhee,  R. M. Richard,  
 M. A. Rohrdanz,  R. P. Steele,  E. J. Sundstrom,  H. L. Woodcock III,  
 P. M. Zimmerman,  D. Zuev,  B. Albrecht,  E. Alguire,  B. Austin,  
 S. A. Baeppler,  G. J. O. Beran,  Y. A. Bernard,  E. Berquist,  
 K. Brandhorst,  K. B. Bravaya,  S. T. Brown,  D. Casanova,  C.-M. Chang,  
 Y. Chen,  S. H. Chien,  K. D. Closser,  D. L. Crittenden,  M. Diedenhofen,  
 R. A. DiStasio Jr.,  H. Do,  A. D. Dutoi,  R. G. Edgar,  P.-T. Fang,  
 S. Fatehi,  Q. Feng,  L. Fusti-Molnar,  A. Ghysels,  
 A. Golubeva-Zadorozhnaya,  J. Gomes,  A. Gunina,  M. W. D. Hanson-Heine,  
 P. H. P. Harbach,  A. W. Hauser,  E. G. Hohenstein,  Z. C. Holden,  K. Hui,  
 T.-C. Jagau,  H. Ji,  B. Kaduk,  K. Khistyaev,  Jaehoon Kim,  Jihan Kim,  
 R. A. King,  P. Klunzinger,  D. Kosenkov,  T. Kowalczyk,  C. M. Krauter,  
 K. U. Lao,  A. Laurent,  K. V. Lawler,  S. Lehtola,  S. V. Levchenko,  
 C. Y. Lin,  Y.-S. Lin,  F. Liu,  E. Livshits,  R. C. Lochan,  A. Luenser,  
 P. Manohar,  S. F. Manzer,  S.-P. Mao,  N. Mardirossian,  A. V. Marenich,  
 L. A. Martinez-Martinez,  S. A. Maurer,  N. J. Mayhall,  K. Nanda,  
 C. M. Oana,  R. Olivares-Amaya,  D. P. O'Neill,  J. A. Parkhill,  
 T. M. Perrine,  R. Peverati,  P. A. Pieniazek,  F. Plasser,  A. Prociuk,  
 D. R. Rehn,  E. Rosta,  N. J. Russ,  N. Sergueev,  S. M. Sharada,  
 S. Sharma,  D. W. Small,  A. Sodt,  T. Stauch,  T. Stein,  D. Stuck,  
 Y.-C. Su,  A. J. W. Thom,  T. Tsuchimochi,  L. Vogt,  O. Vydrov,  T. Wang,  
 M. A. Watson,  J. Wenzel,  A. White,  C. F. Williams,  V. Vanovschi,  
 S. Yeganeh,  S. R. Yost,  Z.-Q. You,  I. Y. Zhang,  X. Zhang,  Y. Zhao,  
 B. R. Brooks,  G. K. L. Chan,  D. M. Chipman,  C. J. Cramer,  
 W. A. Goddard III,  M. S. Gordon,  W. J. Hehre,  A. Klamt,  
 H. F. Schaefer III,  M. W. Schmidt,  C. D. Sherrill,  D. G. Truhlar,  
 A. Warshel,  X. Xu,  A. Aspuru-Guzik,  R. Baer,  A. T. Bell,  N. A. Besley,  
 J.-D. Chai,  A. Dreuw,  B. D. Dunietz,  T. R. Furlani,  S. R. Gwaltney,  
 C.-P. Hsu,  Y. Jung,  J. Kong,  D. S. Lambrecht,  W. Liang,  C. Ochsenfeld,  
 V. A. Rassolov,  L. V. Slipchenko,  J. E. Subotnik,  T. Van Voorhis,  
 J. M. Herbert,  A. I. Krylov,  P. M. W. Gill,  M. Head-Gordon

 Contributors to earlier versions of Q-Chem not listed above: 
 R. D. Adamson,  J. Baker,  E. F. C. Byrd,  A. K. Chakraborty,  C.-L. Cheng,  
 H. Dachsel,  R. J. Doerksen,  G. Hawkins,  A. Heyden,  S. Hirata,  
 G. Kedziora,  F. J. Keil,  C. Kelley,  P. P. Korambath,  W. Kurlancheek,  
 A. M. Lee,  M. S. Lee,  D. Liotard,  I. Lotan,  P. E. Maslen,  N. Nair,  
 D. Neuhauser,  R. Olson,  B. Peters,  J. Ritchie,  N. E. Schultz,  
 N. Shenvi,  A. C. Simmonett,  K. S. Thanthiriwatte,  Q. Wu,  W. Zhang

 Please cite Q-Chem as follows:
 Y. Shao et al., Mol. Phys. 113, 184-215 (2015)
 DOI: 10.1080/00268976.2014.952696

 Q-Chem 4.3.0 for Intel X86 EM64T Linux

 Parts of Q-Chem use Armadillo 5.200.1 (Boston Tea Smuggler).
 http://arma.sourceforge.net/

 Q-Chem begins on Mon Mar 20 16:11:06 2017  


Host: 0

     Scratch files written to /home/nmayhall/scratch_qchem/11//
 Dec1416 |home|nmayhall|qcSoftware|qchem|qchem.svn-casman|libmdc|qstr_RNUM -1
 Using version located at /home/nmayhall/qcSoftware/qchem/qchem.svn-casman/bin/qchem


Total Memory Limit in MB = 2000
Mega-Array Size in MB = 62

Checking the input file for inconsistencies... 	...done.

 Q-Chem warning in module /home/nmayhall/qcSoftware/qchem/qchem.svn-casman/forms1/BasisType.C, line 1452:

 You are not using the predefined 5D/6D in this basis set.

Finally everything over in PARseQInput

--------------------------------------------------------------
User input:
--------------------------------------------------------------
$rem
	exchange 		hf
	unrestricted		1
	basis			6-31g*	
	aux_basis		rimp2-vdz
	scf_guess		core	
	scf_convergence		8
	purecart		1111

	symmetry		0
	sym_ignore		1

	!correlation		sf-cas
	!cas_n_spin_flip		1
	!cas_local		1
	gui			2
$end

$development
	1sf_heis_projection	1
$end

$molecule
0 13
H         -0.73854       -0.54065        0.08576
H         -2.31340       -1.01748       -0.67017
H         -2.09582        0.65549       -0.01146
H         -2.21044       -0.75437        1.11995
H	1.47674	4.17203	0.09828
H	0.1685	4.76022	1.20546
H	0.18287	3.0348	0.65668
H	-0.21686	4.35528	-0.51743
H          3.48850       -0.87553       -0.06084
H          2.29649        0.48578       -0.00191
H          1.93960       -1.06676        0.85992
H          1.91588       -1.00965       -0.95022
He	10	10	10	
He	-10	10	10	
$end


--------------------------------------------------------------
 ----------------------------------------------------------------
             Standard Nuclear Orientation (Angstroms)
    I     Atom           X                Y                Z
 ----------------------------------------------------------------
    1      H      -0.7385400000    -0.5406500000     0.0857600000
    2      H      -2.3134000000    -1.0174800000    -0.6701700000
    3      H      -2.0958200000     0.6554900000    -0.0114600000
    4      H      -2.2104400000    -0.7543700000     1.1199500000
    5      H       1.4767400000     4.1720300000     0.0982800000
    6      H       0.1685000000     4.7602200000     1.2054600000
    7      H       0.1828700000     3.0348000000     0.6566800000
    8      H      -0.2168600000     4.3552800000    -0.5174300000
    9      H       3.4885000000    -0.8755300000    -0.0608400000
   10      H       2.2964900000     0.4857800000    -0.0019100000
   11      H       1.9396000000    -1.0667600000     0.8599200000
   12      H       1.9158800000    -1.0096500000    -0.9502200000
   13      He     10.0000000000    10.0000000000    10.0000000000
   14      He    -10.0000000000    10.0000000000    10.0000000000
 ----------------------------------------------------------------
 Nuclear Repulsion Energy =    12.2277710157 hartrees
 There are       14 alpha and        2 beta electrons
 Requested basis set is 6-31G(d)
 There are 28 shells and 28 basis functions

Total QAlloc Memory Limit   2000 MB
Mega-Array Size        61 MB
MEM_STATIC part        62 MB

finished with qalloc call

                       Distance Matrix (Angstroms)
             H (  1)   H (  2)   H (  3)   H (  4)   H (  5)   H (  6)
   H (  2)  1.810796
   H (  3)  1.811743  1.811096
   H (  4)  1.811550  1.812280  1.811334
   H (  5)  5.207396  6.471993  5.014108  6.237670
   H (  6)  5.493239  6.561984  4.843227  6.006444  1.811990
   H (  7)  3.736146  4.940938  3.361541  4.505592  1.810857  1.810646
   H (  8)  4.960455  5.769347  4.180304  5.723976  1.811342  1.811306
   H (  9)  4.242818  5.835536  5.790604  5.821242  5.436024  6.662402
   H ( 10)  3.205098  4.894635  4.395598  4.807178  3.777627  4.925132
   H ( 11)  2.836997  4.520134  4.473261  4.169896  5.314062  6.099991
   H ( 12)  2.887761  4.238549  4.443838  4.623558  5.304904  6.402476
   He( 13) 18.019814 19.668686 18.271783 18.536629 14.305777 14.193577
   He( 14) 17.180573 17.155792 15.812187 15.974636 16.239608 14.429055
             H (  7)   H (  8)   H (  9)   H ( 10)   H ( 11)   H ( 12)
   H (  8)  1.811625
   H (  9)  5.170368  6.426472
   H ( 10)  3.376186  4.642814  1.810394
   H ( 11)  4.466565  5.995493  1.812032  1.811216
   H ( 12)  4.684338  5.789504  1.811662  1.811206  1.811196
   He( 13) 15.237706 15.711888 16.183241 15.808310 16.461600 17.506362
   He( 14) 15.475868 15.433374 20.035900 18.486813 18.669984 19.573143
             He( 13)
   He( 14) 20.000000


 Q-Chem warning in module /home/nmayhall/qcSoftware/qchem/qchem.svn-casman/forms1/BasisType.C, line 1375:

 SAD: How to set up polarization functions for non-Pople basis?

 Requested basis set is rimp2-VDZ
 There are 82 shells and 186 basis functions
 Job number = 2, Threshold = 1.00E-11
Integral type ranges set in mkLRange.C for JobNum: 2  <1-7|1-7>
Symmetry turned off temporarily
 Using the largest function pair in Schwarz integrals
Total number of integrals generated =            1001
Symmetry turned back on
 A cutoff of  1.0D-11 yielded    275 shell pairs
 There are       275 function pairs
 Job number = 11, Threshold = 1.00E-11
Integral type ranges set in mkLRange.C for JobNum: 11  <1-1|8-8>

 -------------------------------------------------------
 OpenMP Integral Computing Module                       
 Release: version 1.0, May 2013, Q-Chem Inc. Pittsburgh 
 -------------------------------------------------------
 Integral Job Info:
 Integral job number is                      11
 Integral operator is                         1
 short-range coefficients                     0
 long-range coefficients              100000000
 Omega coefficients                           0
 if combine SR and LR in K                    0
 Integral screening is                        0
 Integral computing path is                   2
 max size of driver memory is            800000
 size of driver memory is                 11780
 size of scratch memory is               800000
 max col of scratch BK array                289
 max len of scratch array in speh3            1
 max len of scratch index in speh4            2
 max int batch size is                      520
 min int batch size is                       52
 fixed nKL is                               520
 max L of basis functions is                  0
 order of int derivative is                   0
 number of shells is                         28
 number of basis is                          28
 number of cartesian basis is                28
 number of contracted shell pairs           275
 number of primitive shell pairs            767
 maxK2 (contraction) of shell pair            9
 max number of K2 of shell pair               1
 max number of CS2 of shell pair            136
 max number of PS2 of shell pair            408
 mem total for path MDJ                    6648
 -------------------------------------------------------
 Smallest overlap matrix eigenvalue = 2.12E-01
 Multipole matrices computed through 2nd order

  Scale SEOQF with 1.000000e-02/1.000000e-02/1.000000e-02

 Standard Electronic Orientation quadrupole field applied
 Nucleus-field energy     =     0.0000000006 hartrees
GuessMan:  IGuess = 1
 Guess MOs from core Hamiltonian diagonalization
scfman initvdwdat 
 An unrestricted Hartree-Fock SCF calculation will be
 performed using Pulay DIIS extrapolation
 SCF converges when DIIS error is below 1.0E-08
Finding J and K together
 Job number = 22, Threshold = 1.00E-11
Integral type ranges set in mkLRange.C for JobNum: 22  <1-1|1-1>
Storing 4790.99% of integrals
Total number of integrals generated =           33203
 MakeJK  time:  CPU       0.01 s  wall       0.01 s
Fock build time:  0.01 s (CPU) 0.01 s (wall)
DIIS Errors:  Max 3.23E-01 RMS 2.77E-02

Current DIIS subspace size = 1
REM_GRID_RESTART_DIIS = 0

 ---------------------------------------
  Cycle       Energy         DIIS Error
 ---------------------------------------
    1      -9.5263282637      2.77E-02  00000
Finding J and K together
 Job number = 22, Threshold = 1.00E-11
Integral type ranges set in mkLRange.C for JobNum: 22  <1-1|1-1>
Storing 4790.99% of integrals
Reusing in-core integrals buffer for job 22
 MakeJK  time:  CPU       0.00 s  wall       0.00 s
Fock build time:  0.00 s (CPU) 0.00 s (wall)
DIIS Errors:  Max 2.54E-01 RMS 1.90E-02

Current DIIS subspace size = 2
REM_GRID_RESTART_DIIS = 0

    2     -11.3747268686      1.90E-02  00000
Finding J and K together
 Job number = 22, Threshold = 1.00E-11
Integral type ranges set in mkLRange.C for JobNum: 22  <1-1|1-1>
Storing 4790.99% of integrals
Reusing in-core integrals buffer for job 22
 MakeJK  time:  CPU       0.00 s  wall       0.00 s
Fock build time:  0.00 s (CPU) 0.00 s (wall)
DIIS Errors:  Max 1.11E-01 RMS 8.52E-03

Current DIIS subspace size = 3
REM_GRID_RESTART_DIIS = 0

    3     -11.4386961908      8.52E-03  00000
Finding J and K together
 Job number = 22, Threshold = 1.00E-11
Integral type ranges set in mkLRange.C for JobNum: 22  <1-1|1-1>
Storing 4790.99% of integrals
Reusing in-core integrals buffer for job 22
 MakeJK  time:  CPU       0.00 s  wall       0.00 s
Fock build time:  0.00 s (CPU) 0.00 s (wall)
DIIS Errors:  Max 8.72E-03 RMS 8.15E-04

Current DIIS subspace size = 4
REM_GRID_RESTART_DIIS = 0

    4     -11.4692707036      8.15E-04  00000
Finding J and K together
 Job number = 22, Threshold = 1.00E-11
Integral type ranges set in mkLRange.C for JobNum: 22  <1-1|1-1>
Storing 4790.99% of integrals
Reusing in-core integrals buffer for job 22
 MakeJK  time:  CPU       0.00 s  wall       0.00 s
Fock build time:  0.00 s (CPU) 0.00 s (wall)
DIIS Errors:  Max 1.43E-04 RMS 1.08E-05

Current DIIS subspace size = 5
REM_GRID_RESTART_DIIS = 0

    5     -11.4718312066      1.08E-05  00000
Finding J and K together
 Job number = 22, Threshold = 1.00E-11
Integral type ranges set in mkLRange.C for JobNum: 22  <1-1|1-1>
Storing 4790.99% of integrals
Reusing in-core integrals buffer for job 22
 MakeJK  time:  CPU       0.00 s  wall       0.00 s
Fock build time:  0.00 s (CPU) 0.00 s (wall)
DIIS Errors:  Max 1.31E-05 RMS 9.59E-07

Current DIIS subspace size = 6
REM_GRID_RESTART_DIIS = 0

    6     -11.4719350214      9.59E-07  00000
Finding J and K together
 Job number = 22, Threshold = 1.00E-11
Integral type ranges set in mkLRange.C for JobNum: 22  <1-1|1-1>
Storing 4790.99% of integrals
Reusing in-core integrals buffer for job 22
 MakeJK  time:  CPU       0.00 s  wall       0.00 s
Fock build time:  0.00 s (CPU) 0.00 s (wall)
DIIS Errors:  Max 4.37E-07 RMS 3.41E-08

Current DIIS subspace size = 7
REM_GRID_RESTART_DIIS = 0

    7     -11.4719508236      3.41E-08  00000
Finding J and K together
 Job number = 22, Threshold = 1.00E-11
Integral type ranges set in mkLRange.C for JobNum: 22  <1-1|1-1>
Storing 4790.99% of integrals
Reusing in-core integrals buffer for job 22
 MakeJK  time:  CPU       0.00 s  wall       0.00 s
Fock build time:  0.00 s (CPU) 0.00 s (wall)
DIIS Errors:  Max 2.48E-07 RMS 1.86E-08

Current DIIS subspace size = 8
REM_GRID_RESTART_DIIS = 0

    8     -11.4719539134      1.86E-08  00000
Finding J and K together
 Job number = 22, Threshold = 1.00E-11
Integral type ranges set in mkLRange.C for JobNum: 22  <1-1|1-1>
Storing 4790.99% of integrals
Reusing in-core integrals buffer for job 22
 MakeJK  time:  CPU       0.00 s  wall       0.00 s
Fock build time:  0.00 s (CPU) 0.00 s (wall)
DIIS Errors:  Max 3.59E-09 RMS 2.73E-10

Current DIIS subspace size = 9
REM_GRID_RESTART_DIIS = 0

    9     -11.4719542739      2.73E-10  00000 Convergence criterion met
 ---------------------------------------
 <S^2> = 42.0000
 SCF time:  CPU 0.04 s  wall 0.04 s
 SCF   energy in the final basis set = -11.4719542739
 Total energy in the final basis set = -11.4719542739
Symmetry turned off temporarily
 Analysis of SCF Wavefunction

 --------------------------------------------------------------

                    Orbital Energies (a.u.)
 --------------------------------------------------------------

 Alpha MOs
 -- Occupied --
 -0.914  -0.914  -0.708  -0.702  -0.698  -0.469  -0.463  -0.456
 -0.455  -0.454  -0.452  -0.450  -0.446  -0.439
 -- Virtual --
  0.837   0.859   0.897   0.906   0.917   0.928   0.945   0.972
  0.983   1.059   1.101   1.150   1.400   1.400

 Beta MOs
 -- Occupied --
 -0.914  -0.914
 -- Virtual --
 -0.049  -0.039  -0.033   0.140   0.145   0.158   0.160   0.163
  0.166   0.171   0.182   0.193   1.056   1.073   1.104   1.112
  1.121   1.130   1.144   1.169   1.180   1.262   1.301   1.346
  1.400   1.400
 --------------------------------------------------------------

          Ground-State Mulliken Net Atomic Charges

     Atom                 Charge (a.u.)    Spin (a.u.)
  --------------------------------------------------------
      1 H                     0.000106       0.999894
      2 H                     0.000005       0.999995
      3 H                    -0.000004       1.000004
      4 H                     0.000004       0.999996
      5 H                    -0.000005       1.000005
      6 H                     0.000002       0.999998
      7 H                     0.000007       0.999993
      8 H                    -0.000006       1.000006
      9 H                     0.000065       0.999935
     10 H                    -0.000041       1.000041
     11 H                    -0.000064       1.000064
     12 H                    -0.000068       1.000068
     13 He                    0.000000       0.000000
     14 He                    0.000000       0.000000
  --------------------------------------------------------
  Sum of atomic charges =    -0.000000
  Sum of spin   charges =    12.000000

 -----------------------------------------------------------------
                    Cartesian Multipole Moments
 -----------------------------------------------------------------
    Charge (ESU x 10^10)
                -0.0000
    Dipole Moment (Debye)
         X      -0.0005      Y      -0.0005      Z       0.0002
       Tot       0.0007
    Quadrupole Moments (Debye-Ang)
        XX     -19.5994     XY       0.0138     YY     -19.5189
        XZ       0.0000     YZ      -0.0016     ZZ     -19.5144
    Octopole Moments (Debye-Ang^2)
       XXX     -19.5103    XXY     -38.0658    XYY      -4.8344
       YYY    -116.7616    XXZ     -22.9252    XYZ      -0.0084
       YYZ     -23.7877    XZZ      -4.1147    YZZ     -37.9711
       ZZZ     -70.7113
    Hexadecapole Moments (Debye-Ang^3)
      XXXX   -1642.3857   XXXY     -16.4406   XXYY    -593.4350
      XYYY     -13.6527   YYYY   -1899.7860   XXXZ       3.4158
      XXYZ    -215.3602   XYYZ       0.0339   YYYZ    -656.5713
      XXZZ    -491.0352   XYZZ      -4.3532   YYZZ    -543.5244
      XZZZ       4.4596   YZZZ    -650.7221   ZZZZ   -1318.2307
 -----------------------------------------------------------------
 JobOver = TRUE
Archival summary:
1\1\sinatra\SP\HF\6-31G*\e212()\nmayhall\MonMar2016:11:062017MonMar2016:11:062017\0\\#,HF,6-31G*,\\0,13\H\H,1,1.8108\H,2,1.8111,1,60.0291\H,3,1.81133,2,60.0389,1,70.5227,0\H,1,2.837,2,152.386,3,178.05,0\H,5,1.8112,1,73.0863,2,-68.5028,0\H,6,1.81121,5,60.0005,1,-92.9521,0\H,7,1.81039,6,60.0315,5,-70.571,0\H,3,3.36154,2,143.857,1,-26.9399,0\H,9,1.81065,3,136.832,2,-173.059,0\H,9,1.81086,3,150.176,2,-59.9691,0\H,10,1.81131,9,60.0237,3,77.6154,0\He,10,14.1936,9,122.282,3,-143.419,0\He,10,14.4291,9,122.437,3,-31.7989,0\\HF=-11.4719543\\@

 Total job time:  0.10s(wall), 0.10s(cpu) 
 Mon Mar 20 16:11:06 2017

        *************************************************************
        *                                                           *
        *  Thank you very much for using Q-Chem.  Have a nice day.  *
        *                                                           *
        *************************************************************


*** MISSION COMPLETED -- STARFLEET OUT ***

 
User input: 2 of 2 
 
                  Welcome to Q-Chem
     A Quantum Leap Into The Future Of Chemistry


 Q-Chem 4.3, Q-Chem, Inc., Pleasanton, CA (2015)

 Y. Shao,  Z. Gan,  E. Epifanovsky,  A. T. B. Gilbert,  M. Wormit,  
 J. Kussmann,  A. W. Lange,  A. Behn,  J. Deng,  X. Feng,  D. Ghosh,  
 M. Goldey,  P. R. Horn,  L. D. Jacobson,  I. Kaliman,  R. Z. Khaliullin,  
 T. Kus,  A. Landau,  J. Liu,  E. I. Proynov,  Y. M. Rhee,  R. M. Richard,  
 M. A. Rohrdanz,  R. P. Steele,  E. J. Sundstrom,  H. L. Woodcock III,  
 P. M. Zimmerman,  D. Zuev,  B. Albrecht,  E. Alguire,  B. Austin,  
 S. A. Baeppler,  G. J. O. Beran,  Y. A. Bernard,  E. Berquist,  
 K. Brandhorst,  K. B. Bravaya,  S. T. Brown,  D. Casanova,  C.-M. Chang,  
 Y. Chen,  S. H. Chien,  K. D. Closser,  D. L. Crittenden,  M. Diedenhofen,  
 R. A. DiStasio Jr.,  H. Do,  A. D. Dutoi,  R. G. Edgar,  P.-T. Fang,  
 S. Fatehi,  Q. Feng,  L. Fusti-Molnar,  A. Ghysels,  
 A. Golubeva-Zadorozhnaya,  J. Gomes,  A. Gunina,  M. W. D. Hanson-Heine,  
 P. H. P. Harbach,  A. W. Hauser,  E. G. Hohenstein,  Z. C. Holden,  K. Hui,  
 T.-C. Jagau,  H. Ji,  B. Kaduk,  K. Khistyaev,  Jaehoon Kim,  Jihan Kim,  
 R. A. King,  P. Klunzinger,  D. Kosenkov,  T. Kowalczyk,  C. M. Krauter,  
 K. U. Lao,  A. Laurent,  K. V. Lawler,  S. Lehtola,  S. V. Levchenko,  
 C. Y. Lin,  Y.-S. Lin,  F. Liu,  E. Livshits,  R. C. Lochan,  A. Luenser,  
 P. Manohar,  S. F. Manzer,  S.-P. Mao,  N. Mardirossian,  A. V. Marenich,  
 L. A. Martinez-Martinez,  S. A. Maurer,  N. J. Mayhall,  K. Nanda,  
 C. M. Oana,  R. Olivares-Amaya,  D. P. O'Neill,  J. A. Parkhill,  
 T. M. Perrine,  R. Peverati,  P. A. Pieniazek,  F. Plasser,  A. Prociuk,  
 D. R. Rehn,  E. Rosta,  N. J. Russ,  N. Sergueev,  S. M. Sharada,  
 S. Sharma,  D. W. Small,  A. Sodt,  T. Stauch,  T. Stein,  D. Stuck,  
 Y.-C. Su,  A. J. W. Thom,  T. Tsuchimochi,  L. Vogt,  O. Vydrov,  T. Wang,  
 M. A. Watson,  J. Wenzel,  A. White,  C. F. Williams,  V. Vanovschi,  
 S. Yeganeh,  S. R. Yost,  Z.-Q. You,  I. Y. Zhang,  X. Zhang,  Y. Zhao,  
 B. R. Brooks,  G. K. L. Chan,  D. M. Chipman,  C. J. Cramer,  
 W. A. Goddard III,  M. S. Gordon,  W. J. Hehre,  A. Klamt,  
 H. F. Schaefer III,  M. W. Schmidt,  C. D. Sherrill,  D. G. Truhlar,  
 A. Warshel,  X. Xu,  A. Aspuru-Guzik,  R. Baer,  A. T. Bell,  N. A. Besley,  
 J.-D. Chai,  A. Dreuw,  B. D. Dunietz,  T. R. Furlani,  S. R. Gwaltney,  
 C.-P. Hsu,  Y. Jung,  J. Kong,  D. S. Lambrecht,  W. Liang,  C. Ochsenfeld,  
 V. A. Rassolov,  L. V. Slipchenko,  J. E. Subotnik,  T. Van Voorhis,  
 J. M. Herbert,  A. I. Krylov,  P. M. W. Gill,  M. Head-Gordon

 Contributors to earlier versions of Q-Chem not listed above: 
 R. D. Adamson,  J. Baker,  E. F. C. Byrd,  A. K. Chakraborty,  C.-L. Cheng,  
 H. Dachsel,  R. J. Doerksen,  G. Hawkins,  A. Heyden,  S. Hirata,  
 G. Kedziora,  F. J. Keil,  C. Kelley,  P. P. Korambath,  W. Kurlancheek,  
 A. M. Lee,  M. S. Lee,  D. Liotard,  I. Lotan,  P. E. Maslen,  N. Nair,  
 D. Neuhauser,  R. Olson,  B. Peters,  J. Ritchie,  N. E. Schultz,  
 N. Shenvi,  A. C. Simmonett,  K. S. Thanthiriwatte,  Q. Wu,  W. Zhang

 Please cite Q-Chem as follows:
 Y. Shao et al., Mol. Phys. 113, 184-215 (2015)
 DOI: 10.1080/00268976.2014.952696

 Q-Chem 4.3.0 for Intel X86 EM64T Linux

 Parts of Q-Chem use Armadillo 5.200.1 (Boston Tea Smuggler).
 http://arma.sourceforge.net/

 Q-Chem begins on Mon Mar 20 16:11:06 2017  


Host: 0

     Scratch files written to /home/nmayhall/scratch_qchem/11//
 Dec1416 |home|nmayhall|qcSoftware|qchem|qchem.svn-casman|libmdc|qstr_RNUM -1
 Using version located at /home/nmayhall/qcSoftware/qchem/qchem.svn-casman/bin/qchem

 Turning off symmetry for CASMAN

Total Memory Limit in MB = 2000
Mega-Array Size in MB = 62

Checking the input file for inconsistencies... 	...done.

 Q-Chem warning in module /home/nmayhall/qcSoftware/qchem/qchem.svn-casman/forms1/BasisType.C, line 1452:

 You are not using the predefined 5D/6D in this basis set.

Finally everything over in PARseQInput

--------------------------------------------------------------
User input:
--------------------------------------------------------------
$rem
	exchange 		hf
	unrestricted		0
	basis			6-31g*	
	aux_basis		rimp2-vdz
	scf_guess		read	
	scf_convergence		8
	purecart		1111

	symmetry		0
	sym_ignore		1

	correlation		sf-cas
	cas_n_spin_flip		1
	cas_local		1
	gui			2
$end

$development
	1sf_heis_projection	1
	scf_corresponding_orbs	1
$end

$molecule
read
$end

--------------------------------------------------------------
 ----------------------------------------------------------------
             Standard Nuclear Orientation (Angstroms)
    I     Atom           X                Y                Z
 ----------------------------------------------------------------
    1      H      -0.7385400000    -0.5406500000     0.0857600000
    2      H      -2.3134000000    -1.0174800000    -0.6701700000
    3      H      -2.0958200000     0.6554900000    -0.0114600000
    4      H      -2.2104400000    -0.7543700000     1.1199500000
    5      H       1.4767400000     4.1720300000     0.0982800000
    6      H       0.1685000000     4.7602200000     1.2054600000
    7      H       0.1828700000     3.0348000000     0.6566800000
    8      H      -0.2168600000     4.3552800000    -0.5174300000
    9      H       3.4885000000    -0.8755300000    -0.0608400000
   10      H       2.2964900000     0.4857800000    -0.0019100000
   11      H       1.9396000000    -1.0667600000     0.8599200000
   12      H       1.9158800000    -1.0096500000    -0.9502200000
   13      He     10.0000000000    10.0000000000    10.0000000000
   14      He    -10.0000000000    10.0000000000    10.0000000000
 ----------------------------------------------------------------
 Nuclear Repulsion Energy =    12.2277710157 hartrees
 There are       14 alpha and        2 beta electrons
 Requested basis set is 6-31G(d)
 There are 28 shells and 28 basis functions

Total QAlloc Memory Limit   2000 MB
Mega-Array Size        61 MB
MEM_STATIC part        62 MB

finished with qalloc call

                       Distance Matrix (Angstroms)
             H (  1)   H (  2)   H (  3)   H (  4)   H (  5)   H (  6)
   H (  2)  1.810796
   H (  3)  1.811743  1.811096
   H (  4)  1.811550  1.812280  1.811334
   H (  5)  5.207396  6.471993  5.014108  6.237670
   H (  6)  5.493239  6.561984  4.843227  6.006444  1.811990
   H (  7)  3.736146  4.940938  3.361541  4.505592  1.810857  1.810646
   H (  8)  4.960455  5.769347  4.180304  5.723976  1.811342  1.811306
   H (  9)  4.242818  5.835536  5.790604  5.821242  5.436024  6.662402
   H ( 10)  3.205098  4.894635  4.395598  4.807178  3.777627  4.925132
   H ( 11)  2.836997  4.520134  4.473261  4.169896  5.314062  6.099991
   H ( 12)  2.887761  4.238549  4.443838  4.623558  5.304904  6.402476
   He( 13) 18.019814 19.668686 18.271783 18.536629 14.305777 14.193577
   He( 14) 17.180573 17.155792 15.812187 15.974636 16.239608 14.429055
             H (  7)   H (  8)   H (  9)   H ( 10)   H ( 11)   H ( 12)
   H (  8)  1.811625
   H (  9)  5.170368  6.426472
   H ( 10)  3.376186  4.642814  1.810394
   H ( 11)  4.466565  5.995493  1.812032  1.811216
   H ( 12)  4.684338  5.789504  1.811662  1.811206  1.811196
   He( 13) 15.237706 15.711888 16.183241 15.808310 16.461600 17.506362
   He( 14) 15.475868 15.433374 20.035900 18.486813 18.669984 19.573143
             He( 13)
   He( 14) 20.000000


 Q-Chem warning in module /home/nmayhall/qcSoftware/qchem/qchem.svn-casman/forms1/BasisType.C, line 1375:

 SAD: How to set up polarization functions for non-Pople basis?

 Requested basis set is rimp2-VDZ
 There are 82 shells and 186 basis functions
 Job number = 2, Threshold = 1.00E-12
Integral type ranges set in mkLRange.C for JobNum: 2  <1-7|1-7>
Symmetry turned off temporarily
 Using the largest function pair in Schwarz integrals
Total number of integrals generated =            1004
Symmetry turned back on
 A cutoff of  1.0D-12 yielded    278 shell pairs
 There are       278 function pairs
 Job number = 11, Threshold = 1.00E-12
Integral type ranges set in mkLRange.C for JobNum: 11  <1-1|8-8>

 -------------------------------------------------------
 OpenMP Integral Computing Module                       
 Release: version 1.0, May 2013, Q-Chem Inc. Pittsburgh 
 -------------------------------------------------------
 Integral Job Info:
 Integral job number is                      11
 Integral operator is                         1
 short-range coefficients                     0
 long-range coefficients              100000000
 Omega coefficients                           0
 if combine SR and LR in K                    0
 Integral screening is                        0
 Integral computing path is                   2
 max size of driver memory is            800000
 size of driver memory is                 11780
 size of scratch memory is               800000
 max col of scratch BK array                289
 max len of scratch array in speh3            1
 max len of scratch index in speh4            2
 max int batch size is                      520
 min int batch size is                       52
 fixed nKL is                               520
 max L of basis functions is                  0
 order of int derivative is                   0
 number of shells is                         28
 number of basis is                          28
 number of cartesian basis is                28
 number of contracted shell pairs           278
 number of primitive shell pairs            788
 maxK2 (contraction) of shell pair            9
 max number of K2 of shell pair               1
 max number of CS2 of shell pair            142
 max number of PS2 of shell pair            426
 mem total for path MDJ                    6720
 -------------------------------------------------------
 Smallest overlap matrix eigenvalue = 2.12E-01
 Multipole matrices computed through 2nd order

  Scale SEOQF with 1.000000e-02/1.000000e-02/1.000000e-02

 Standard Electronic Orientation quadrupole field applied
 Nucleus-field energy     =     0.0000000006 hartrees
GuessMan:  IGuess = 1000
 Guess MOs from SCF MO coefficient file
 Reading MOs from coefficient file
 Reading MOs from coefficient file
scfman initvdwdat 
 A restricted Hartree-Fock SCF calculation will be
 performed using Geometric Direct Minimization
 SCF converges when RMS gradient is below 1.0E-08
Finding J and K together
 Job number = 22, Threshold = 1.00E-12
Integral type ranges set in mkLRange.C for JobNum: 22  <1-1|1-1>
Storing 4688.33% of integrals
Total number of integrals generated =           34563
 MakeJK  time:  CPU       0.01 s  wall       0.01 s
Fock build time:  0.01 s (CPU) 0.01 s (wall)
 ---------------------------------------
  Cycle       Energy        RMS Gradient
 ---------------------------------------
    1     -11.4719543020      9.98E-05  00000 Normal BFGS step
Finding J and K together
 Job number = 22, Threshold = 1.00E-12
Integral type ranges set in mkLRange.C for JobNum: 22  <1-1|1-1>
Storing 4688.33% of integrals
Reusing in-core integrals buffer for job 22
 MakeJK  time:  CPU       0.00 s  wall       0.00 s
Fock build time:  0.00 s (CPU) 0.00 s (wall)
    2     -11.4719543072      4.14E-10  00000 Convergence criterion met
 ---------------------------------------
 SCF time:  CPU 0.02 s  wall 0.02 s
 Obtaining Corresponding orbitals

 Forming corresponding orbitals block-by-block...
 Size of singly occupied alpha block:      12 : 12.0000
 Size of doubly occupied block:             2 : 2.0000
 Size of singly occupied beta block:        0 : 0.0000
 Size of unoccupied block:                 14 : 14.0000
 Use scf_boys =     0 (Canonical)
                    1 (Boys)
                    2 (Pipek-Mezey)
                    3 (ER)
 Build new fock matrix
 I'm here
 I'm here
 Calling AOints...
 Job number = 22, Threshold = 1.00E-12
Integral type ranges set in mkLRange.C for JobNum: 22  <1-1|1-1>
Storing 4688.33% of integrals
 done.
 E(SCF): disk=    -11.471954307237 current=    -11.471954307237 diff=   0.000e+00
 SCF   energy in the final basis set = -11.4719543072
 Total energy in the final basis set = -11.4719543072
 DevKeyword Parameters: 
 1sf_heis_projection                   1
scf_corresponding_orbs                   1


 ========================================================
                       In SF-CAS-CI                      
 ========================================================
 DevKeyword Parameters: 
 1sf_heis_projection                   1
scf_corresponding_orbs                   1

 Forming orbitals for SF-CAS calculation.
NBas   : 28
NOrb   : 28
NDOcc  : 2
NSOcc  : 12
NDVir  : 14
ISpin  : 0
e_hf: -11.47195431
 Using OPT1 Orbitals: Favg | Favg | Favg 
 A/B mix in Doubly occupied F  : 0.50000000
 A/B mix in Singly occupied F  : 0.50000000
 A/B mix in Doubly unoccupied F: 0.50000000
 Max of F(beta)ds      : 1.550e-16
 Max of F(alpha)sv     : 3.135e-12
 Max of F(average)dv   : 2.383e-11
 Orbital Energies  (D):
    1    -0.91413170    -0.91413170
    2    -0.91412592    -0.91412592
 Orbital Energies  (S):
    3    -0.36510933    -0.36510933
    4    -0.35759765    -0.35759765
    5    -0.35288857    -0.35288857
    6    -0.14398590    -0.14398590
    7    -0.13840874    -0.13840874
    8    -0.12994600    -0.12994600
    9    -0.12847802    -0.12847802
   10    -0.12674931    -0.12674931
   11    -0.12467812    -0.12467812
   12    -0.12202274    -0.12202274
   13    -0.11551243    -0.11551243
   14    -0.10711521    -0.10711521
 Orbital Energies  (V):
   15     0.92549195     0.92549195
   16     0.94554339     0.94554339
   17     0.98112432     0.98112432
   18     0.98960800     0.98960800
   19     1.00012874     1.00012874
   20     1.01079966     1.01079966
   21     1.02673031     1.02673031
   22     1.05394208     1.05394208
   23     1.06531367     1.06531367
   24     1.14769118     1.14769118
   25     1.18851301     1.18851301
   26     1.23621663     1.23621663
   27     1.39985427     1.39985427
   28     1.39986005     1.39986005
 tr(Pa)     :   14.0000000000
 tr(Pb)     :    2.0000000000
 E(core) with new P : -37.55118520
 E(HF) with new P   : -11.47195431
 Difference in Ehf  :  -4.2633e-14

 Number of spin flips: 1
 Use cas_local =    0 (Canonical)
                    1 (Boys)
                    2 (Pipek-Mezey)
                    3 (ER)
 Using Boys orbitals in casman
 
 
 
Calling Get_Boys in C++
 
 
 
Orbital 8 Variance 7.87100957
Orbital 2 Variance 15.29370027
Orbital 12 Variance 20.64450944
Orbital 9 Variance 22.05446531
Orbital 4 Variance 22.10591051
Orbital 7 Variance 22.74415453
Orbital 3 Variance 23.43771201
Orbital 11 Variance 26.22434106
Orbital 5 Variance 26.34620590
Orbital 1 Variance 26.55479588
Orbital 6 Variance 29.87911826
Orbital 10 Variance 32.41301314
          ***** NUMBER OF SADDLE POINTS SO FAR = 0 ******

Initially in boys_jacobi.C before sweep, get_boys, boysval = 197.580473
In BOYS_JACOBI SWEEPS for get_boys, ending in round     5  because max_diff = 8.991401e-07


---> BEGIN 2nd Der Calculation    ******  
Guessing MaxD =  20 and MinD = 10
in get_boys.C: p = 0 guessthresh  52.5835073981 numsofar 18 MinD 10
in get_boys.C: p = 1 guessthresh  52.0835073981 numsofar 18 MinD 10
in get_boys.C: p = 2 guessthresh  51.8335073981 numsofar 18 MinD 10
in get_boys.C: p = 3 guessthresh  51.7085073981 numsofar 5 MinD 10
DimInGuess 5 mineval  51.5835073981 guessthresh  51.7085073981
round 0 sizeofsub 5 eval0 5.096186e+01 diffeval0 1.000500e+05 length_qM 1.115115e+00 thresh 1.000000e-08
round 1 sizeofsub 6 eval0 5.036295e+01 diffeval0 5.989166e-01 length_qM 1.065490e-01 thresh 1.000000e-08
round 2 sizeofsub 7 eval0 5.036232e+01 diffeval0 6.258466e-04 length_qM 2.209060e-01 thresh 1.000000e-08
round 3 sizeofsub 8 eval0 5.036123e+01 diffeval0 1.093460e-03 length_qM 1.540922e-02 thresh 1.000000e-08
round 4 sizeofsub 9 eval0 5.036122e+01 diffeval0 1.058791e-05 length_qM 3.024466e-02 thresh 1.000000e-08
round 5 sizeofsub 10 eval0 5.036119e+01 diffeval0 2.364824e-05 length_qM 6.541688e-03 thresh 1.000000e-08
round 6 sizeofsub 11 eval0 5.036119e+01 diffeval0 2.040953e-06 length_qM 1.228163e-03 thresh 1.000000e-08
round 7 sizeofsub 12 eval0 5.036119e+01 diffeval0 5.530886e-09 length_qM 8.801006e-06 thresh 1.000000e-08
round 8 sizeofsub 13 eval0 5.036119e+01 diffeval0 4.501288e-11 length_qM 3.093122e-05 thresh 1.000000e-08
round 9 sizeofsub 14 eval0 5.036119e+01 diffeval0 1.876543e-11 length_qM 1.966206e-05 thresh 1.000000e-08
round 10 sizeofsub 15 eval0 5.036119e+01 diffeval0 2.479794e-12 length_qM 4.166319e-07 thresh 1.000000e-08
Converged to smallest eigenvalue: eval0 5.036119e+01

Success!!! No Negative Eigenvalues: Ending Get Boys in C++ ...Bye Bye
Orbital 12 Variance 2.76561862
Orbital 9 Variance 2.77105393
Orbital 4 Variance 2.77263698
Orbital 3 Variance 2.77552849
Orbital 5 Variance 2.77591729
Orbital 2 Variance 2.77619772
Orbital 7 Variance 2.77621508
Orbital 1 Variance 2.77643573
Orbital 8 Variance 2.77657507
Orbital 10 Variance 2.77659098
Orbital 11 Variance 2.77666114
Orbital 6 Variance 2.77763762
EXECUTING ORTHO_FUNC DESTRUCTOR

 Dimensions of orbital sub-spaces:    
 Number Hole Orbs:Alpha:Beta:       2    2    2
 Number Active Orbs:Alpha:Beta:    12   11    1
 Number Part Orbs:Alpha:Beta:      14    0    0

 Dimensions in SF-RAS-hp calculation: 
 Number of active space determinants:  144
 Number of hole space determinants:    1608
 Number of part space determinants:    11256
 Number of hole-part determinants:     130060
 Total 1x space:                       13008
 Total singles space:                  143068
 REM_MEM_TOT: 2000
 Memory Used: 0
 Memory Left: 2000
 Memory Need: 2
 Constructing 1e MO integrals
 Form (P|Q)**(-1/2)...
 Job number = 66, Threshold = 1.00E-12
Integral type ranges set in mkLRange.C for JobNum: 66  <2-7|2-7>
Symmetry turned off temporarily
Storing 4688.33% of integrals
Total number of integrals generated =           19965
Symmetry turned back on
 Forming (pq|P)...
 Forming Active-Active (aa|P) integrals...

 Entering first-index batching code with I1Strt =    3 batch size =   12
 Job number = 65, Threshold = 1.00E-12
Integral type ranges set in mkLRange.C for JobNum: 65  <1-1|2-7>
Symmetry turned off temporarily
Storing 4688.33% of integrals
Total number of integrals generated =           55044
Symmetry turned back on
 Forming Active-Active B integrals...
 Contracting B matrices to form 2e integrals. 
 Forming 2J-K over o,v with exact integrals
 Calling AOints... Job number = 22, Threshold = 1.00E-12
Integral type ranges set in mkLRange.C for JobNum: 22  <1-1|1-1>
Storing 4688.33% of integrals
Total number of integrals generated =           34563
 done.

 ROHF energy found on disk: 
 E(ROHF):         -11.47195431
-11.47195431
 First 10 Diagonal elements of H: 
 11111111111_ | 1___________        -11.07928021
 11111111111_ | _1__________        -10.91385123
 11111111111_ | __1_________        -10.93179858
 11111111111_ | ___1________        -10.99253901
 11111111111_ | ____1_______        -11.07888067
 11111111111_ | _____1______        -10.97390857
 11111111111_ | ______1_____        -11.07910055
 11111111111_ | _______1____        -10.90335629
 11111111111_ | ________1___        -10.99555834
 11111111111_ | _________1__        -10.90877182
 Fill S2_CAS Matrix...  done.
 Fill H_CAS Matrix...  done.

 Diagonalizing H_CAS 
 Entering cast_sfcas_to_sfcis
 ===================================================================
 Theory           State:          Energy (au)       (eV)       <S2>
 -------------------------------------------------------------------
 SF-CAS               1:       -11.5300954278     0.0000    30.0000
 SF-CAS               2:       -11.5287343991     0.0370    30.0000
 SF-CAS               3:       -11.5286369040     0.0397    30.0000
 SF-CAS               4:       -11.5283769145     0.0468    30.0000
 SF-CAS               5:       -11.5282820268     0.0493    30.0000
 SF-CAS               6:       -11.5282446673     0.0504    30.0000
 SF-CAS               7:       -11.5281944500     0.0517    30.0000
 SF-CAS               8:       -11.5281284158     0.0535    30.0000
 SF-CAS               9:       -11.5280896154     0.0546    30.0000
 SF-CAS              10:       -11.4731322056     1.5501    30.0000
 SF-CAS              11:       -11.4722083314     1.5752    30.0000
 SF-CAS              12:       -11.4719543072     1.5821    42.0000
 SF-CAS              13:       -11.2094170188     8.7262    30.0000
 SF-CAS              14:       -11.2036902228     8.8820    30.0000
 SF-CAS              15:       -11.2034265400     8.8892    30.0000
 SF-CAS              16:       -11.2032887527     8.8929    30.0000
 SF-CAS              17:       -11.2024840768     8.9148    30.0000
 SF-CAS              18:       -11.2020855361     8.9257    30.0000
 SF-CAS              19:       -11.2019538869     8.9293    30.0000
 SF-CAS              20:       -11.2017336177     8.9353    30.0000
 SF-CAS              21:       -11.2016358494     8.9379    30.0000
 SF-CAS              22:       -11.1825229323     9.4580    30.0000
 SF-CAS              23:       -11.1724964220     9.7309    30.0000
 SF-CAS              24:       -11.1687727313     9.8322    30.0000
 SF-CAS              25:       -11.1617616257    10.0230    30.0000
 SF-CAS              26:       -11.1581315681    10.1218    30.0000
 SF-CAS              27:       -11.1556877592    10.1883    30.0000
 SF-CAS              28:       -11.1520739324    10.2866    30.0000
 SF-CAS              29:       -11.1456590767    10.4611    30.0000
 SF-CAS              30:       -11.1445543914    10.4912    30.0000
 SF-CAS              31:       -11.1427179988    10.5412    30.0000
 SF-CAS              32:       -11.1414518389    10.5756    30.0000
 SF-CAS              33:       -11.1399734559    10.6159    30.0000
 SF-CAS              34:       -11.1360195794    10.7235    30.0000
 SF-CAS              35:       -11.1312444913    10.8534    30.0000
 SF-CAS              36:       -11.1254742817    11.0104    30.0000
 SF-CAS              37:       -11.1252507761    11.0165    30.0000
 SF-CAS              38:       -11.1199124193    11.1618    30.0000
 SF-CAS              39:       -11.1176176422    11.2242    30.0000
 SF-CAS              40:       -11.0876095210    12.0408    30.0000
 SF-CAS              41:       -11.0861492064    12.0805    30.0000
 SF-CAS              42:       -11.0861178422    12.0814    30.0000
 SF-CAS              43:       -11.0858918738    12.0875    30.0000
 SF-CAS              44:       -11.0856761850    12.0934    30.0000
 SF-CAS              45:       -11.0856542891    12.0940    30.0000
 SF-CAS              46:       -11.0833185862    12.1575    30.0000
 SF-CAS              47:       -11.0831812372    12.1613    30.0000
 SF-CAS              48:       -11.0818635761    12.1971    30.0000
 SF-CAS              49:       -11.0817550588    12.2001    30.0000
 SF-CAS              50:       -11.0816524523    12.2029    30.0000
 SF-CAS              51:       -11.0815070019    12.2068    30.0000
 SF-CAS              52:       -11.0813144263    12.2121    30.0000
 SF-CAS              53:       -11.0797627218    12.2543    30.0000
 SF-CAS              54:       -11.0794230048    12.2635    30.0000
 SF-CAS              55:       -11.0793101664    12.2666    30.0000
 SF-CAS              56:       -11.0788253331    12.2798    30.0000
 SF-CAS              57:       -11.0771258233    12.3261    30.0000
 SF-CAS              58:       -10.9865432009    14.7910    30.0000
 SF-CAS              59:       -10.9790228835    14.9956    30.0000
 SF-CAS              60:       -10.9783834534    15.0130    30.0000
 SF-CAS              61:       -10.9706755471    15.2227    30.0000
 SF-CAS              62:       -10.9650107908    15.3769    30.0000
 SF-CAS              63:       -10.9631279929    15.4281    30.0000
 SF-CAS              64:       -10.9598039931    15.5186    30.0000
 SF-CAS              65:       -10.9557355552    15.6293    30.0000
 SF-CAS              66:       -10.9510028089    15.7581    30.0000
 SF-CAS              67:       -10.9485750947    15.8241    30.0000
 SF-CAS              68:       -10.9459442607    15.8957    30.0000
 SF-CAS              69:       -10.9450957233    15.9188    30.0000
 SF-CAS              70:       -10.9428940937    15.9787    30.0000
 SF-CAS              71:       -10.9404793673    16.0444    30.0000
 SF-CAS              72:       -10.9400004490    16.0575    30.0000
 SF-CAS              73:       -10.9389810252    16.0852    30.0000
 SF-CAS              74:       -10.9388637904    16.0884    30.0000
 SF-CAS              75:       -10.9375500021    16.1241    30.0000
 SF-CAS              76:       -10.9363500355    16.1568    30.0000
 SF-CAS              77:       -10.9348621061    16.1973    30.0000
 SF-CAS              78:       -10.9343997944    16.2099    30.0000
 SF-CAS              79:       -10.9339098695    16.2232    30.0000
 SF-CAS              80:       -10.9315709970    16.2868    30.0000
 SF-CAS              81:       -10.9313894022    16.2918    30.0000
 SF-CAS              82:       -10.9299308995    16.3315    30.0000
 SF-CAS              83:       -10.9279452677    16.3855    30.0000
 SF-CAS              84:       -10.9254722544    16.4528    30.0000
 SF-CAS              85:       -10.9238927541    16.4958    30.0000
 SF-CAS              86:       -10.9235732512    16.5045    30.0000
 SF-CAS              87:       -10.9228870309    16.5231    30.0000
 SF-CAS              88:       -10.9219969250    16.5474    30.0000
 SF-CAS              89:       -10.9207472717    16.5814    30.0000
 SF-CAS              90:       -10.9202850925    16.5939    30.0000
 SF-CAS              91:       -10.9198621042    16.6055    30.0000
 SF-CAS              92:       -10.9182311841    16.6498    30.0000
 SF-CAS              93:       -10.9170316506    16.6825    30.0000
 SF-CAS              94:       -10.9159585729    16.7117    30.0000
 SF-CAS              95:       -10.9154797647    16.7247    30.0000
 SF-CAS              96:       -10.9151480937    16.7337    30.0000
 SF-CAS              97:       -10.9134491378    16.7800    30.0000
 SF-CAS              98:       -10.9130882125    16.7898    30.0000
 SF-CAS              99:       -10.9127950762    16.7978    30.0000
 SF-CAS             100:       -10.9100154479    16.8734    30.0000
 SF-CAS             101:       -10.9098805771    16.8771    30.0000
 SF-CAS             102:       -10.9078726949    16.9317    30.0000
 SF-CAS             103:       -10.9068951113    16.9583    30.0000
 SF-CAS             104:       -10.9062690479    16.9753    30.0000
 SF-CAS             105:       -10.9040795743    17.0349    30.0000
 SF-CAS             106:       -10.9034411659    17.0523    30.0000
 SF-CAS             107:       -10.9030548746    17.0628    30.0000
 SF-CAS             108:       -10.9002881998    17.1381    30.0000
 SF-CAS             109:       -10.8996518907    17.1554    30.0000
 SF-CAS             110:       -10.8991592037    17.1688    30.0000
 SF-CAS             111:       -10.8979601852    17.2014    30.0000
 SF-CAS             112:       -10.8950430265    17.2808    30.0000
 SF-CAS             113:       -10.8918935889    17.3665    30.0000
 SF-CAS             114:       -10.8898832097    17.4212    30.0000
 SF-CAS             115:       -10.8893020253    17.4370    30.0000
 SF-CAS             116:       -10.8883808902    17.4621    30.0000
 SF-CAS             117:       -10.8877096819    17.4804    30.0000
 SF-CAS             118:       -10.8864182736    17.5155    30.0000
 SF-CAS             119:       -10.8859182566    17.5291    30.0000
 SF-CAS             120:       -10.8844673960    17.5686    30.0000
 SF-CAS             121:       -10.8835446623    17.5937    30.0000
 SF-CAS             122:       -10.8833964041    17.5977    30.0000
 SF-CAS             123:       -10.8823021267    17.6275    30.0000
 SF-CAS             124:       -10.8805027235    17.6765    30.0000
 SF-CAS             125:       -10.8789815572    17.7179    30.0000
 SF-CAS             126:       -10.8762913820    17.7911    30.0000
 SF-CAS             127:       -10.7140758422    22.2052    30.0000
 SF-CAS             128:       -10.7008352356    22.5655    30.0000
 SF-CAS             129:       -10.6995625073    22.6002    30.0000
 SF-CAS             130:       -10.6944142924    22.7403    30.0000
 SF-CAS             131:       -10.6923441218    22.7966    30.0000
 SF-CAS             132:       -10.6861724357    22.9645    30.0000
 SF-CAS             133:       -10.6831911006    23.0457    30.0000
 SF-CAS             134:       -10.6786653622    23.1688    30.0000
 SF-CAS             135:       -10.6782632995    23.1798    30.0000
 SF-CAS             136:       -10.6732778077    23.3154    30.0000
 SF-CAS             137:       -10.6714021324    23.3665    30.0000
 SF-CAS             138:       -10.6701125856    23.4016    30.0000
 SF-CAS             139:       -10.6681807921    23.4541    30.0000
 SF-CAS             140:       -10.6660075451    23.5133    30.0000
 SF-CAS             141:       -10.6600913967    23.6742    30.0000
 SF-CAS             142:       -10.6599071398    23.6793    30.0000
 SF-CAS             143:       -10.6559154660    23.7879    30.0000
 SF-CAS             144:       -10.6435225086    24.1251    30.0000
 ===================================================================

              Active Space Coefficients > 0.20
 -------------------------------------------------------------------
 State  1                       Configuration         Coeff.   <S^2>
 -------------------------------------------------------------------
                  11111111111_ | ___________1       0.655348  31.000
                  11111111_111 | ________1___       0.292794  31.000
                  1111_1111111 | ____1_______       0.203422  31.000
                  111_11111111 | ___1________      -0.208882  31.000
                  11_111111111 | __1_________      -0.360104  31.000
                  _11111111111 | 1___________       0.224109  31.000
 -------------------------------------------------------------------
 State  2                       Configuration         Coeff.   <S^2>
 -------------------------------------------------------------------
                  1111111111_1 | __________1_       0.578416  31.000
                  1111111_1111 | _______1____       0.276242  31.000
                  11111_111111 | _____1______       0.335895  31.000
                  11_111111111 | __1_________       0.395322  31.000
 -------------------------------------------------------------------
 State  3                       Configuration         Coeff.   <S^2>
 -------------------------------------------------------------------
                  11111111111_ | ___________1      -0.363347  31.000
                  1111111111_1 | __________1_       0.352708  31.000
                  11111111_111 | ________1___       0.230867  31.000
                  1111_1111111 | ____1_______      -0.295379  31.000
                  111_11111111 | ___1________      -0.230722  31.000
                  11_111111111 | __1_________      -0.571042  31.000
 -------------------------------------------------------------------
 State  4                       Configuration         Coeff.   <S^2>
 -------------------------------------------------------------------
                  111111_11111 | ______1_____      -0.253629  31.000
                  11111_111111 | _____1______       0.453104  31.000
                  1111_1111111 | ____1_______       0.510695  31.000
                  111_11111111 | ___1________      -0.228100  31.000
                  _11111111111 | 1___________      -0.410322  31.000
 -------------------------------------------------------------------
 State  5                       Configuration         Coeff.   <S^2>
 -------------------------------------------------------------------
                  11111111_111 | ________1___       0.607394  31.000
                  111_11111111 | ___1________       0.672694  31.000
 -------------------------------------------------------------------
 State  6                       Configuration         Coeff.   <S^2>
 -------------------------------------------------------------------
                  1111111111_1 | __________1_       0.298780  31.000
                  111111111_11 | _________1__       0.356812  31.000
                  11111111_111 | ________1___      -0.252392  31.000
                  1111111_1111 | _______1____       0.254544  31.000
                  11111_111111 | _____1______      -0.418801  31.000
                  1111_1111111 | ____1_______       0.389138  31.000
                  1_1111111111 | _1__________      -0.311380  31.000
 -------------------------------------------------------------------
 State  7                       Configuration         Coeff.   <S^2>
 -------------------------------------------------------------------
                  111111111_11 | _________1__       0.583214  31.000
                  1111111_1111 | _______1____      -0.234528  31.000
                  11111_111111 | _____1______       0.309389  31.000
                  1_1111111111 | _1__________      -0.504411  31.000
 -------------------------------------------------------------------
 State  8                       Configuration         Coeff.   <S^2>
 -------------------------------------------------------------------
                  1111111111_1 | __________1_      -0.213391  31.000
                  111111111_11 | _________1__      -0.346431  31.000
                  1111111_1111 | _______1____       0.625359  31.000
                  1_1111111111 | _1__________      -0.491743  31.000
 -------------------------------------------------------------------
 State  9                       Configuration         Coeff.   <S^2>
 -------------------------------------------------------------------
                  111111_11111 | ______1_____      -0.697026  31.000
                  _11111111111 | 1___________       0.579473  31.000
 -------------------------------------------------------------------
 State  10                      Configuration         Coeff.   <S^2>
 -------------------------------------------------------------------
                  11111111111_ | ___________1       0.337090  31.000
                  11111111_111 | ________1___       0.344899  31.000
                  111111_11111 | ______1_____      -0.359279  31.000
                  11111_111111 | _____1______      -0.354812  31.000
                  1111_1111111 | ____1_______      -0.357684  31.000
                  111_11111111 | ___1________      -0.347244  31.000
                  11_111111111 | __1_________       0.361520  31.000
                  _11111111111 | 1___________      -0.359290  31.000
 -------------------------------------------------------------------
 State  11                      Configuration         Coeff.   <S^2>
 -------------------------------------------------------------------
                  11111111111_ | ___________1      -0.203156  31.000
                  1111111111_1 | __________1_      -0.403984  31.000
                  111111111_11 | _________1__       0.409007  31.000
                  11111111_111 | ________1___       0.205793  31.000
                  1111111_1111 | _______1____       0.409727  31.000
                  111111_11111 | ______1_____       0.203861  31.000
                  11111_111111 | _____1______      -0.202925  31.000
                  1111_1111111 | ____1_______       0.201017  31.000
                  111_11111111 | ___1________      -0.205827  31.000
                  11_111111111 | __1_________       0.205849  31.000
                  1_1111111111 | _1__________       0.409593  31.000
                  _11111111111 | 1___________       0.203883  31.000
 -------------------------------------------------------------------
 State  12                      Configuration         Coeff.   <S^2>
 -------------------------------------------------------------------
                  11111111111_ | ___________1       0.288675  31.000
                  1111111111_1 | __________1_      -0.288675  31.000
                  111111111_11 | _________1__       0.288675  31.000
                  11111111_111 | ________1___      -0.288675  31.000
                  1111111_1111 | _______1____       0.288675  31.000
                  111111_11111 | ______1_____      -0.288675  31.000
                  11111_111111 | _____1______       0.288675  31.000
                  1111_1111111 | ____1_______      -0.288675  31.000
                  111_11111111 | ___1________       0.288675  31.000
                  11_111111111 | __1_________      -0.288675  31.000
                  1_1111111111 | _1__________       0.288675  31.000
                  _11111111111 | 1___________      -0.288675  31.000
 -------------------------------------------------------------------
 State  13                      Configuration         Coeff.   <S^2>
 -------------------------------------------------------------------
                  11111111111_ | 1___________      -0.302367  30.000
                  11111111111_ | ___1________      -0.248640  30.000
                  11111111111_ | ____1_______      -0.300189  30.000
                  11111111111_ | _____1______      -0.228875  30.000
                  11111111111_ | ______1_____      -0.301273  30.000
                  11111111111_ | ________1___       0.249622  30.000
                  11_111111111 | ___1________      -0.209022  30.000
                  11_111111111 | _____1______      -0.247872  30.000
 -------------------------------------------------------------------
 State  14                      Configuration         Coeff.   <S^2>
 -------------------------------------------------------------------
                  11111111111_ | 1___________       0.262079  30.000
                  11111111111_ | ____1_______       0.242855  30.000
                  11111111111_ | ______1_____       0.262993  30.000
                  11111_111111 | ________1___       0.202066  30.000
                  11_111111111 | __1_________       0.227091  31.000
                  11_111111111 | ___1________      -0.351521  30.000
                  11_111111111 | _____1______      -0.331679  30.000
                  11_111111111 | ________1___       0.346073  30.000
 -------------------------------------------------------------------
 State  15                      Configuration         Coeff.   <S^2>
 -------------------------------------------------------------------
                  111111_11111 | 1___________       0.318837  30.000
                  111111_11111 | ___________1       0.246736  30.000
                  1111_1111111 | 1___________      -0.356081  30.000
                  1111_1111111 | ____1_______       0.260483  31.000
                  1111_1111111 | ______1_____      -0.346470  30.000
                  1111_1111111 | ___________1      -0.466891  30.000
                  _11111111111 | ______1_____       0.299986  30.000
                  _11111111111 | ___________1       0.217597  30.000
 -------------------------------------------------------------------
 State  16                      Configuration         Coeff.   <S^2>
 -------------------------------------------------------------------
                  111111_11111 | 1___________      -0.252427  30.000
                  111111_11111 | ____1_______      -0.388525  30.000
                  111111_11111 | ______1_____       0.232391  31.000
                  111111_11111 | ___________1      -0.405750  30.000
                  _11111111111 | 1___________      -0.241395  31.000
                  _11111111111 | ____1_______       0.395324  30.000
                  _11111111111 | ______1_____       0.271830  30.000
                  _11111111111 | ___________1       0.419044  30.000
 -------------------------------------------------------------------
 State  17                      Configuration         Coeff.   <S^2>
 -------------------------------------------------------------------
                  11111111_111 | __1_________       0.297360  30.000
                  11111111_111 | ___1________       0.317109  30.000
                  11111_111111 | __1_________      -0.384263  30.000
                  11111_111111 | ___1________      -0.377398  30.000
                  11111_111111 | _____1______       0.239439  31.000
                  11111_111111 | ________1___       0.310360  30.000
 -------------------------------------------------------------------
 State  18                      Configuration         Coeff.   <S^2>
 -------------------------------------------------------------------
                  1111111111_1 | _1__________       0.224371  30.000
                  1111111111_1 | _______1____      -0.216868  30.000
                  1111111111_1 | _________1__      -0.217834  30.000
                  11111111_111 | __1_________      -0.340256  30.000
                  11111111_111 | ___1________      -0.217278  30.000
                  11111111_111 | _____1______      -0.337239  30.000
                  111_11111111 | __1_________       0.351377  30.000
                  111_11111111 | ___1________      -0.215360  31.000
                  111_11111111 | _____1______       0.363538  30.000
                  111_11111111 | ________1___      -0.256912  30.000
 -------------------------------------------------------------------
 State  19                      Configuration         Coeff.   <S^2>
 -------------------------------------------------------------------
                  1111111111_1 | _1__________       0.349171  30.000
                  1111111111_1 | _______1____      -0.334847  30.000
                  1111111111_1 | _________1__      -0.318461  30.000
                  1111111111_1 | __________1_      -0.221877  31.000
                  111111111_11 | _______1____       0.211050  30.000
                  11111_111111 | __1_________       0.208322  30.000
                  11111_111111 | ________1___      -0.245620  30.000
                  111_11111111 | __1_________      -0.280600  30.000
                  111_11111111 | _____1______      -0.205077  30.000
                  111_11111111 | ________1___       0.251071  30.000
 -------------------------------------------------------------------
 State  20                      Configuration         Coeff.   <S^2>
 -------------------------------------------------------------------
                  111111111_11 | _1__________       0.383981  30.000
                  111111111_11 | _______1____      -0.368414  30.000
                  111111111_11 | _________1__       0.271019  31.000
                  111111111_11 | __________1_       0.467669  30.000
                  1111111_1111 | _1__________      -0.334023  30.000
                  1111111_1111 | __________1_      -0.258072  30.000
                  1_1111111111 | _______1____      -0.301089  30.000
                  1_1111111111 | __________1_       0.208405  30.000
 -------------------------------------------------------------------
 State  21                      Configuration         Coeff.   <S^2>
 -------------------------------------------------------------------
                  1111111_1111 | _1__________      -0.238773  30.000
                  1111111_1111 | _______1____      -0.225195  31.000
                  1111111_1111 | _________1__       0.384056  30.000
                  1111111_1111 | __________1_      -0.393380  30.000
                  1_1111111111 | _1__________       0.253657  31.000
                  1_1111111111 | _______1____       0.301636  30.000
                  1_1111111111 | _________1__       0.420579  30.000
                  1_1111111111 | __________1_      -0.420747  30.000
 -------------------------------------------------------------------
 State  22                      Configuration         Coeff.   <S^2>
 -------------------------------------------------------------------
                  11111111111_ | __1_________      -0.330741  30.000
                  11111111111_ | ___1________      -0.410170  30.000
                  11111111111_ | _____1______      -0.383104  30.000
                  11111111111_ | ________1___       0.416694  30.000
 -------------------------------------------------------------------
 State  23                      Configuration         Coeff.   <S^2>
 -------------------------------------------------------------------
                  11111111_111 | 1___________       0.326985  30.000
                  11111111_111 | ____1_______       0.329563  30.000
                  11111111_111 | ______1_____       0.340275  30.000
                  11111111_111 | ___________1       0.469640  30.000
                  111_11111111 | 1___________      -0.299511  30.000
                  111_11111111 | ____1_______      -0.292918  30.000
                  111_11111111 | ______1_____      -0.287456  30.000
                  111_11111111 | ___________1      -0.409429  30.000
 -------------------------------------------------------------------
 State  24                      Configuration         Coeff.   <S^2>
 -------------------------------------------------------------------
                  1111111111_1 | 1___________      -0.201484  30.000
                  1111111111_1 | ____1_______      -0.255947  30.000
                  1111111111_1 | ______1_____      -0.211708  30.000
                  1111111111_1 | ___________1      -0.258873  30.000
                  11111_111111 | 1___________       0.274605  30.000
                  11111_111111 | ____1_______       0.296091  30.000
                  11111_111111 | ______1_____       0.277045  30.000
                  11111_111111 | ___________1       0.372673  30.000
                  111_11111111 | ___________1      -0.245766  30.000
 -------------------------------------------------------------------
 State  25                      Configuration         Coeff.   <S^2>
 -------------------------------------------------------------------
                  1111111111_1 | 1___________      -0.204873  30.000
                  1111111111_1 | ___1________       0.225415  30.000
                  1111111111_1 | ____1_______      -0.265156  30.000
                  1111111111_1 | _____1______       0.271126  30.000
                  1111111111_1 | ______1_____      -0.215928  30.000
                  1111111111_1 | ________1___      -0.232476  30.000
                  1111111111_1 | ___________1      -0.291331  30.000
 -------------------------------------------------------------------
 State  26                      Configuration         Coeff.   <S^2>
 -------------------------------------------------------------------
                  11111111111_ | __________1_       0.223815  30.000
                  11111_111111 | _1__________      -0.231988  30.000
                  11111_111111 | _______1____       0.225157  30.000
                  11111_111111 | _________1__       0.264883  30.000
                  11111_111111 | __________1_      -0.278051  30.000
                  1111_1111111 | _1__________       0.251364  30.000
                  1111_1111111 | _______1____      -0.230815  30.000
                  1111_1111111 | _________1__      -0.227370  30.000
                  1111_1111111 | __________1_       0.295439  30.000
 -------------------------------------------------------------------
 State  27                      Configuration         Coeff.   <S^2>
 -------------------------------------------------------------------
                  11111_111111 | _1__________       0.290131  30.000
                  11111_111111 | _______1____      -0.281040  30.000
                  11111_111111 | _________1__      -0.330544  30.000
                  11111_111111 | __________1_       0.358821  30.000
                  1111_1111111 | _1__________       0.244538  30.000
                  1111_1111111 | _______1____      -0.224145  30.000
                  1111_1111111 | _________1__      -0.221892  30.000
                  1111_1111111 | __________1_       0.294546  30.000
 -------------------------------------------------------------------
 State  28                      Configuration         Coeff.   <S^2>
 -------------------------------------------------------------------
                  1111111111_1 | 1___________      -0.206655  30.000
                  1111111111_1 | __1_________      -0.211646  30.000
                  1111111111_1 | ___1________      -0.209696  30.000
                  1111111111_1 | ____1_______      -0.264508  30.000
                  1111111111_1 | _____1______      -0.269436  30.000
                  1111111111_1 | ______1_____      -0.218014  30.000
                  1111111111_1 | ________1___       0.213786  30.000
                  1111_1111111 | ___1________       0.212290  30.000
                  1111_1111111 | _____1______       0.209902  30.000
                  1111_1111111 | ________1___      -0.211378  30.000
 -------------------------------------------------------------------
 State  29                      Configuration         Coeff.   <S^2>
 -------------------------------------------------------------------
                  11111111111_ | _1__________       0.218076  30.000
                  11111111111_ | _______1____      -0.208264  30.000
                  11111111111_ | _________1__      -0.214811  30.000
                  11111111111_ | __________1_       0.259724  30.000
                  111111_11111 | _1__________       0.203330  30.000
                  111111_11111 | __________1_       0.240754  30.000
                  1111_1111111 | __________1_      -0.226332  30.000
 -------------------------------------------------------------------
 State  30                      Configuration         Coeff.   <S^2>
 -------------------------------------------------------------------
                  111111_11111 | __1_________       0.291077  30.000
                  111111_11111 | ___1________       0.338421  30.000
                  111111_11111 | _____1______       0.323239  30.000
                  111111_11111 | ________1___      -0.356650  30.000
                  _11111111111 | __1_________      -0.279884  30.000
                  _11111111111 | ___1________      -0.339927  30.000
                  _11111111111 | _____1______      -0.316891  30.000
                  _11111111111 | ________1___       0.330708  30.000
 -------------------------------------------------------------------
 State  31                      Configuration         Coeff.   <S^2>
 -------------------------------------------------------------------
                  111111111_11 | _____1______       0.230556  30.000
                  1111_1111111 | ___1________      -0.214569  30.000
                  1111_1111111 | _____1______      -0.205723  30.000
                  1111_1111111 | ________1___       0.213462  30.000
                  11_111111111 | 1___________       0.207541  30.000
                  11_111111111 | ____1_______       0.213738  30.000
                  11_111111111 | ______1_____       0.208054  30.000
                  11_111111111 | ___________1       0.247586  30.000
 -------------------------------------------------------------------
 State  32                      Configuration         Coeff.   <S^2>
 -------------------------------------------------------------------
                  111111111_11 | ___1________       0.212230  30.000
                  111111111_11 | _____1______       0.256627  30.000
                  111111111_11 | ________1___      -0.212145  30.000
                  11_111111111 | 1___________      -0.265800  30.000
                  11_111111111 | ____1_______      -0.266848  30.000
                  11_111111111 | ______1_____      -0.265969  30.000
                  11_111111111 | ___________1      -0.315859  30.000
 -------------------------------------------------------------------
 State  33                      Configuration         Coeff.   <S^2>
 -------------------------------------------------------------------
                  1111111111_1 | __1_________      -0.206233  30.000
                  1111111111_1 | ___1________      -0.208600  30.000
                  1111111111_1 | _____1______      -0.269255  30.000
                  1111111111_1 | ________1___       0.213787  30.000
                  1111_1111111 | ___1________      -0.222119  30.000
                  1111_1111111 | _____1______      -0.215767  30.000
                  1111_1111111 | ________1___       0.220760  30.000
 -------------------------------------------------------------------
 State  34                      Configuration         Coeff.   <S^2>
 -------------------------------------------------------------------
                  1111111_1111 | 1___________      -0.248424  30.000
                  1111111_1111 | __1_________       0.209052  30.000
                  1111111_1111 | ___1________       0.235553  30.000
                  1111111_1111 | ____1_______      -0.291272  30.000
                  1111111_1111 | _____1______       0.262578  30.000
                  1111111_1111 | ______1_____      -0.257066  30.000
                  1111111_1111 | ________1___      -0.241115  30.000
                  1111111_1111 | ___________1      -0.317040  30.000
                  1_1111111111 | 1___________      -0.256591  30.000
                  1_1111111111 | ____1_______      -0.307874  30.000
                  1_1111111111 | ______1_____      -0.258331  30.000
                  1_1111111111 | ___________1      -0.286157  30.000
 -------------------------------------------------------------------
 State  35                      Configuration         Coeff.   <S^2>
 -------------------------------------------------------------------
                  11111111_111 | _1__________       0.318325  30.000
                  11111111_111 | _______1____      -0.314468  30.000
                  11111111_111 | _________1__      -0.337932  30.000
                  11111111_111 | __________1_       0.371606  30.000
                  111_11111111 | _1__________      -0.330960  30.000
                  111_11111111 | _______1____       0.317753  30.000
                  111_11111111 | _________1__       0.347108  30.000
                  111_11111111 | __________1_      -0.373693  30.000
 -------------------------------------------------------------------
 State  36                      Configuration         Coeff.   <S^2>
 -------------------------------------------------------------------
                  111111_11111 | _1__________      -0.328027  30.000
                  111111_11111 | _______1____       0.319408  30.000
                  111111_11111 | _________1__       0.314250  30.000
                  111111_11111 | __________1_      -0.370628  30.000
                  _11111111111 | _1__________       0.343041  30.000
                  _11111111111 | _______1____      -0.325289  30.000
                  _11111111111 | _________1__      -0.325535  30.000
                  _11111111111 | __________1_       0.374525  30.000
 -------------------------------------------------------------------
 State  37                      Configuration         Coeff.   <S^2>
 -------------------------------------------------------------------
                  111111111_11 | 1___________       0.305553  30.000
                  111111111_11 | ____1_______       0.348848  30.000
                  111111111_11 | ______1_____       0.310447  30.000
                  111111111_11 | ___________1       0.308055  30.000
                  1_1111111111 | __1_________       0.233290  30.000
                  1_1111111111 | ___1________       0.231409  30.000
                  1_1111111111 | ____1_______       0.208264  30.000
                  1_1111111111 | _____1______       0.268319  30.000
                  1_1111111111 | ________1___      -0.227306  30.000
 -------------------------------------------------------------------
 State  38                      Configuration         Coeff.   <S^2>
 -------------------------------------------------------------------
                  1111111_1111 | 1___________       0.244378  30.000
                  1111111_1111 | __1_________       0.307120  30.000
                  1111111_1111 | ___1________       0.296463  30.000
                  1111111_1111 | ____1_______       0.284769  30.000
                  1111111_1111 | _____1______       0.346346  30.000
                  1111111_1111 | ______1_____       0.252857  30.000
                  1111111_1111 | ________1___      -0.299433  30.000
                  1111111_1111 | ___________1       0.204195  30.000
                  1_1111111111 | __1_________       0.217159  30.000
                  1_1111111111 | ___1________       0.221100  30.000
                  1_1111111111 | _____1______       0.249616  30.000
                  1_1111111111 | ________1___      -0.217659  30.000
 -------------------------------------------------------------------
 State  39                      Configuration         Coeff.   <S^2>
 -------------------------------------------------------------------
                  11111111111_ | _1__________      -0.217514  30.000
                  11111111111_ | _______1____       0.204798  30.000
                  11111111111_ | _________1__       0.207872  30.000
                  11111111111_ | __________1_      -0.263090  30.000
                  11_111111111 | _1__________       0.326167  30.000
                  11_111111111 | _______1____      -0.321093  30.000
                  11_111111111 | _________1__      -0.354141  30.000
                  11_111111111 | __________1_       0.365746  30.000
 -------------------------------------------------------------------
 State  40                      Configuration         Coeff.   <S^2>
 -------------------------------------------------------------------
                  11111111_111 | __1_________       0.204809  30.000
                  11111111_111 | ___1________      -0.394176  30.000
                  11111111_111 | _____1______       0.244238  30.000
                  11111_111111 | __1_________      -0.350012  30.000
                  11111_111111 | ________1___      -0.210551  30.000
                  111_11111111 | __1_________       0.205849  30.000
                  111_11111111 | _____1______       0.200648  30.000
                  111_11111111 | ________1___       0.352095  30.000
                  11_111111111 | ___1________      -0.244643  30.000
                  11_111111111 | _____1______       0.380875  30.000
 -------------------------------------------------------------------
 State  41                      Configuration         Coeff.   <S^2>
 -------------------------------------------------------------------
                  11111111_111 | __1_________      -0.301366  30.000
                  11111111_111 | _____1______       0.284190  30.000
                  11111_111111 | ___1________      -0.312496  30.000
                  11111_111111 | ________1___      -0.265157  30.000
                  111_11111111 | __1_________       0.249994  30.000
                  111_11111111 | _____1______      -0.298605  30.000
                  11_111111111 | ___1________      -0.290034  30.000
                  11_111111111 | ________1___      -0.305881  30.000
 -------------------------------------------------------------------
 State  42                      Configuration         Coeff.   <S^2>
 -------------------------------------------------------------------
                  1111111111_1 | _1__________       0.224666  30.000
                  1111111111_1 | _________1__       0.373019  30.000
                  111111111_11 | _______1____      -0.205666  30.000
                  111111111_11 | __________1_      -0.334008  30.000
                  1111111_1111 | _1__________      -0.351905  30.000
                  1111111_1111 | _________1__      -0.220567  30.000
                  1_1111111111 | _______1____      -0.353549  30.000
                  1_1111111111 | __________1_      -0.202176  30.000
 -------------------------------------------------------------------
 State  43                      Configuration         Coeff.   <S^2>
 -------------------------------------------------------------------
                  1111111111_1 | _1__________      -0.329416  30.000
[...]
   697     3236.16870786    31106.37845798       12.00000000      cm-1
   698     3236.96879212    31107.17854224        6.00000000      cm-1
   699     3238.42554282    31108.63529294        6.00000000      cm-1
   700     3239.05602912    31109.26577924       12.00000000      cm-1
   701     3241.62464967    31111.83439979       20.00000000      cm-1
   702     3243.51738220    31113.72713232        6.00000000      cm-1
   703     3244.10746376    31114.31721389       -0.00000000      cm-1
   704     3244.71519302    31114.92494315        2.00000000      cm-1
   705     3246.87616089    31117.08591101        6.00000000      cm-1
   706     3247.36027134    31117.57002146       20.00000000      cm-1
   707     3247.48706893    31117.69681905       -0.00000000      cm-1
   708     3247.63712706    31117.84687718       12.00000000      cm-1
   709     3251.04967636    31121.25942648        6.00000000      cm-1
   710     3251.56005716    31121.76980728        6.00000000      cm-1
   711     3252.25612683    31122.46587696       12.00000000      cm-1
   712     3255.27814022    31125.48789035       12.00000000      cm-1
   713     3255.30255992    31125.51231004        6.00000000      cm-1
   714     3255.63862363    31125.84837375        2.00000000      cm-1
   715     3256.78496109    31126.99471121       20.00000000      cm-1
   716     3258.98296612    31129.19271624        6.00000000      cm-1
   717     3259.24399267    31129.45374279        2.00000000      cm-1
   718     3259.98377520    31130.19352533       12.00000000      cm-1
   719     3262.41665531    31132.62640543        2.00000000      cm-1
   720     3262.79893495    31133.00868508        6.00000000      cm-1
   721     3266.17220998    31136.38196010       12.00000000      cm-1
   722     3266.66753355    31136.87728368        6.00000000      cm-1
   723     3268.12620770    31138.33595782        6.00000000      cm-1
   724     3269.81918410    31140.02893422       12.00000000      cm-1
   725     3271.43330453    31141.64305466       12.00000000      cm-1
   726     3273.46349915    31143.67324927       12.00000000      cm-1
   727     3277.70824203    31147.91799216        6.00000000      cm-1
   728     3277.97071930    31148.18046942       12.00000000      cm-1
   729     3280.04980525    31150.25955538       12.00000000      cm-1
   730     3281.97995784    31152.18970796        6.00000000      cm-1
   731     3283.41648083    31153.62623095        6.00000000      cm-1
   732     3284.73997229    31154.94972241       12.00000000      cm-1
   733     3284.96003997    31155.16979009        2.00000000      cm-1
   734     3286.57990415    31156.78965427       20.00000000      cm-1
   735     3288.02573579    31158.23548591       -0.00000000      cm-1
   736     3288.71107698    31158.92082711       12.00000000      cm-1
   737     3290.15426429    31160.36401441       12.00000000      cm-1
   738     3291.81223825    31162.02198837       12.00000000      cm-1
   739     3297.61464451    31167.82439463       20.00000000      cm-1
   740     3301.56930566    31171.77905578       20.00000000      cm-1
   741     3304.71321887    31174.92296899       12.00000000      cm-1
   742     3305.00518883    31175.21493895       20.00000000      cm-1
   743     3306.20341337    31176.41316349        6.00000000      cm-1
   744     3307.79367104    31178.00342117        6.00000000      cm-1
   745     3308.97803721    31179.18778733       20.00000000      cm-1
   746     3310.78526067    31180.99501079       20.00000000      cm-1
   747     3311.27933459    31181.48908472       12.00000000      cm-1
   748     3311.59775735    31181.80750747       20.00000000      cm-1
   749     3312.02138432    31182.23113444       12.00000000      cm-1
   750     3319.18436892    31189.39411904       12.00000000      cm-1
   751     3321.15962369    31191.36937381        6.00000000      cm-1
   752     3325.52944073    31195.73919085       20.00000000      cm-1
   753     3327.39245940    31197.60220952       20.00000000      cm-1
   754     3329.52535586    31199.73510599       20.00000000      cm-1
   755     3352.60188793    31222.81163805       20.00000000      cm-1
   756     3360.69328766    31230.90303778       20.00000000      cm-1
   757     3367.36053242    31237.57028254       20.00000000      cm-1
   758     8799.36037674    36669.57012687       -0.00000000      cm-1
   759     8863.05157234    36733.26132246        2.00000000      cm-1
   760     8864.02774346    36734.23749358        0.00000000      cm-1
   761     8927.72853146    36797.93828158        2.00000000      cm-1
   762     8988.77572231    36858.98547243        6.00000000      cm-1
   763     9053.47200541    36923.68175553        6.00000000      cm-1
   764     9101.56219282    36971.77194294       -0.00000000      cm-1
   765     9111.51899579    36981.72874591        2.00000000      cm-1
   766     9131.38689030    37001.59664042        6.00000000      cm-1
   767     9137.09430828    37007.30405841        0.00000000      cm-1
   768     9146.03525697    37016.24500709        2.00000000      cm-1
   769     9161.07545829    37031.28520842       12.00000000      cm-1
   770     9163.87579979    37034.08554991        6.00000000      cm-1
   771     9173.41996526    37043.62971538       12.00000000      cm-1
   772     9190.53422379    37060.74397392       12.00000000      cm-1
   773     9200.45153140    37070.66128152       20.00000000      cm-1
   774     9206.99602558    37077.20577570       -0.00000000      cm-1
   775     9216.54423478    37086.75398490        2.00000000      cm-1
   776     9225.89039272    37096.10014285       20.00000000      cm-1
   777     9235.59886300    37105.80861313        6.00000000      cm-1
   778     9238.14556679    37108.35531691       12.00000000      cm-1
   779     9264.07719206    37134.28694219       12.00000000      cm-1
   780     9301.85726856    37172.06701868       20.00000000      cm-1
   781     9305.68850687    37175.89825699       -0.00000000      cm-1
   782     9315.22712550    37185.43687563        2.00000000      cm-1
   783     9334.26036865    37204.47011877        6.00000000      cm-1
   784     9362.70126682    37232.91101694       12.00000000      cm-1
   785     9400.42185722    37270.63160734       20.00000000      cm-1
   786     9412.76647696    37282.97622708       20.00000000      cm-1
   787     9477.53174781    37347.74149793       20.00000000      cm-1
   788    14850.75562495    42720.96537507        2.00000000      cm-1
   789    14867.67962889    42737.88937902        6.00000000      cm-1
   790    14892.19630438    42762.40605450       12.00000000      cm-1
   791    14964.88832393    42835.09807405        2.00000000      cm-1
   792    14992.75153098    42862.96128110        2.00000000      cm-1
   793    15000.43767697    42870.64742709        2.00000000      cm-1
   794    15011.32365256    42881.53340268        6.00000000      cm-1
   795    15019.71766003    42889.92741016        0.00000000      cm-1
   796    15024.72458609    42894.93433621        2.00000000      cm-1
   797    15028.31372288    42898.52347300       -0.00000000      cm-1
   798    15036.79192461    42907.00167473       -0.00000000      cm-1
   799    15037.11067565    42907.32042577        2.00000000      cm-1
   800    15043.23213009    42913.44188021        2.00000000      cm-1
   801    15047.70944300    42917.91919313        2.00000000      cm-1
   802    15056.50979839    42926.71954852        6.00000000      cm-1
   803    15061.46787760    42931.67762772        2.00000000      cm-1
   804    15064.20170530    42934.41145542       12.00000000      cm-1
   805    15065.82915638    42936.03890651        6.00000000      cm-1
   806    15070.65518291    42940.86493303        6.00000000      cm-1
   807    15073.03258799    42943.24233811        6.00000000      cm-1
   808    15076.40838932    42946.61813945       -0.00000000      cm-1
   809    15080.13315009    42950.34290021        2.00000000      cm-1
   810    15084.69341178    42954.90316190       12.00000000      cm-1
   811    15093.96620977    42964.17595989        6.00000000      cm-1
   812    15095.01310506    42965.22285518       12.00000000      cm-1
   813    15111.11672462    42981.32647474        2.00000000      cm-1
   814    15130.19588464    43000.40563477        2.00000000      cm-1
   815    15132.39260770    43002.60235782        6.00000000      cm-1
   816    15136.61707100    43006.82682113       20.00000000      cm-1
   817    15140.50584085    43010.71559097        2.00000000      cm-1
   818    15157.46667400    43027.67642412        6.00000000      cm-1
   819    15163.48796165    43033.69771177       12.00000000      cm-1
   820    15167.30036963    43037.51011975       12.00000000      cm-1
   821    15168.93347781    43039.14322794        6.00000000      cm-1
   822    15197.46871891    43067.67846903        2.00000000      cm-1
   823    15198.16089677    43068.37064689        6.00000000      cm-1
   824    15204.85963314    43075.06938326        2.00000000      cm-1
   825    15205.47261327    43075.68236339       20.00000000      cm-1
   826    15214.10984375    43084.31959388       12.00000000      cm-1
   827    15223.67252886    43093.88227898       -0.00000000      cm-1
   828    15229.13318531    43099.34293543        6.00000000      cm-1
   829    15230.77739793    43100.98714806       12.00000000      cm-1
   830    15234.90784943    43105.11759955        2.00000000      cm-1
   831    15245.29054217    43115.50029229       -0.00000000      cm-1
   832    15253.08226705    43123.29201717        6.00000000      cm-1
   833    15255.84827089    43126.05802101        2.00000000      cm-1
   834    15256.86096533    43127.07071545       30.00000000      cm-1
   835    15265.75273925    43135.96248937       12.00000000      cm-1
   836    15275.93308924    43146.14283936        6.00000000      cm-1
   837    15279.85448806    43150.06423818       12.00000000      cm-1
   838    15291.44265284    43161.65240297       20.00000000      cm-1
   839    15298.67465100    43168.88440112        6.00000000      cm-1
   840    15302.29221618    43172.50196630       -0.00000000      cm-1
   841    15305.37580540    43175.58555553       12.00000000      cm-1
   842    15310.05493141    43180.26468153        6.00000000      cm-1
   843    15312.33523601    43182.54498613        2.00000000      cm-1
   844    15330.09095869    43200.30070881        6.00000000      cm-1
   845    15341.09449834    43211.30424846       12.00000000      cm-1
   846    15343.50334940    43213.71309952       20.00000000      cm-1
   847    15350.09673298    43220.30648310       12.00000000      cm-1
   848    15350.70714276    43220.91689288       20.00000000      cm-1
   849    15359.66854619    43229.87829632       12.00000000      cm-1
   850    15388.27186645    43258.48161657       20.00000000      cm-1
   851    15390.30155174    43260.51130186       12.00000000      cm-1
   852    15393.27706552    43263.48681564        6.00000000      cm-1
   853    15410.84299292    43281.05274304        0.00000000      cm-1
   854    15416.09920896    43286.30895908       20.00000000      cm-1
   855    15416.44952966    43286.65927979        2.00000000      cm-1
   856    15420.15950729    43290.36925741        2.00000000      cm-1
   857    15431.89274132    43302.10249144       20.00000000      cm-1
   858    15435.82645976    43306.03620988        6.00000000      cm-1
   859    15441.56533922    43311.77508935        6.00000000      cm-1
   860    15462.94243518    43333.15218530       12.00000000      cm-1
   861    15469.10971240    43339.31946252        2.00000000      cm-1
   862    15474.97158815    43345.18133827       12.00000000      cm-1
   863    15486.65036530    43356.86011542        2.00000000      cm-1
   864    15486.79129958    43357.00104970        6.00000000      cm-1
   865    15498.32076375    43368.53051388       20.00000000      cm-1
   866    15501.69115988    43371.90091001        0.00000000      cm-1
   867    15508.47602466    43378.68577478        6.00000000      cm-1
   868    15511.13852506    43381.34827518        2.00000000      cm-1
   869    15513.12401898    43383.33376911       12.00000000      cm-1
   870    15518.44882923    43388.65857935       20.00000000      cm-1
   871    15521.15037315    43391.36012327       12.00000000      cm-1
   872    15522.53368206    43392.74343218        2.00000000      cm-1
   873    15529.95966799    43400.16941811        6.00000000      cm-1
   874    15534.44332274    43404.65307286       12.00000000      cm-1
   875    15538.55523622    43408.76498634        2.00000000      cm-1
   876    15541.59011031    43411.79986044       12.00000000      cm-1
   877    15546.86009720    43417.06984732        6.00000000      cm-1
   878    15553.11309859    43423.32284871        2.00000000      cm-1
   879    15555.57223972    43425.78198985       30.00000000      cm-1
   880    15555.82250394    43426.03225407        6.00000000      cm-1
   881    15557.80958372    43428.01933385       12.00000000      cm-1
   882    15567.11235446    43437.32210459        6.00000000      cm-1
   883    15575.94983347    43446.15958359       20.00000000      cm-1
   884    15576.96995114    43447.17970126       30.00000000      cm-1
   885    15577.38686431    43447.59661443       12.00000000      cm-1
   886    15579.42617402    43449.63592415        2.00000000      cm-1
   887    15581.57721710    43451.78696722       12.00000000      cm-1
   888    15589.55010754    43459.75985766        6.00000000      cm-1
   889    15590.17148631    43460.38123643       20.00000000      cm-1
   890    15591.00012037    43461.20987049       12.00000000      cm-1
   891    15592.41729566    43462.62704578       20.00000000      cm-1
   892    15601.24347176    43471.45322188       12.00000000      cm-1
   893    15602.12477389    43472.33452401       20.00000000      cm-1
   894    15614.55399239    43484.76374251       20.00000000      cm-1
   895    15615.64005923    43485.84980935       20.00000000      cm-1
   896    15634.03104268    43504.24079280       30.00000000      cm-1
   897    15637.09224774    43507.30199786       20.00000000      cm-1
   898    15641.91587969    43512.12562981       12.00000000      cm-1
   899    15648.37810479    43518.58785491       20.00000000      cm-1
   900    15654.85648369    43525.06623381       30.00000000      cm-1
   901    15663.05595938    43533.26570950       30.00000000      cm-1
   902    15674.07738147    43544.28713160       30.00000000      cm-1
   903    15688.57021120    43558.77996132       30.00000000      cm-1
   904    15697.08591896    43567.29566908       30.00000000      cm-1
   905    27328.45414980    55198.66389992        6.00000000      cm-1
   906    27364.51697673    55234.72672685        2.00000000      cm-1
   907    27383.00429099    55253.21404111        6.00000000      cm-1
   908    27410.78225202    55280.99200214       12.00000000      cm-1
   909    27462.42197014    55332.63172026        0.00000000      cm-1
   910    27471.73118453    55341.94093465        2.00000000      cm-1
   911    27490.33251116    55360.54226129        6.00000000      cm-1
   912    27518.19179757    55388.40154769       12.00000000      cm-1
   913    27555.25800703    55425.46775715       20.00000000      cm-1
   914    27628.40617532    55498.61592545        2.00000000      cm-1
   915    27647.14917901    55517.35892913        6.00000000      cm-1
   916    27675.19482280    55545.40457292       12.00000000      cm-1
   917    27712.46166956    55582.67141968       20.00000000      cm-1
   918    27758.84310271    55629.05285283       30.00000000      cm-1
   919    27848.96990285    55719.17965297        6.00000000      cm-1
   920    27877.27460835    55747.48435848       12.00000000      cm-1
   921    27914.86326521    55785.07301533       20.00000000      cm-1
   922    27961.61003892    55831.81978904       30.00000000      cm-1
   923    28017.36189931    55887.57164943       42.00000000      cm-1
 Analysis of SCF Wavefunction

 --------------------------------------------------------------

                    Orbital Energies (a.u.)
 --------------------------------------------------------------

 Alpha MOs
 -- Occupied --
 -0.914  -0.914  -0.516  -0.516  -0.516  -0.515  -0.516  -0.518
 -0.516  -0.516  -0.515  -0.516  -0.516  -0.516
 -- Virtual --
  1.029   0.972   0.995   1.000   1.015   1.052   1.016   1.043
  1.186   1.327   0.988   0.929   0.963   0.837

 Beta MOs
 -- Occupied --
 -0.914  -0.914
 -- Virtual --
  0.147   0.147   0.147   0.147   0.147   0.148   0.147   0.147
  0.149   0.147   0.148   0.147   1.203   1.123   1.163   1.142
  1.185   1.189   1.171   1.191   1.265   1.359   1.157   1.093
  1.132   1.014
 --------------------------------------------------------------

          Ground-State Mulliken Net Atomic Charges

     Atom                 Charge (a.u.)
  ----------------------------------------
      1 H                     0.000106
      2 H                     0.000005
      3 H                    -0.000004
      4 H                     0.000004
      5 H                    -0.000005
      6 H                     0.000002
      7 H                     0.000007
      8 H                    -0.000006
      9 H                     0.000065
     10 H                    -0.000041
     11 H                    -0.000064
     12 H                    -0.000068
     13 He                    0.000000
     14 He                    0.000000
  ----------------------------------------
  Sum of atomic charges =    -0.000000

 -----------------------------------------------------------------
                    Cartesian Multipole Moments
 -----------------------------------------------------------------
    Charge (ESU x 10^10)
                -0.0000
    Dipole Moment (Debye)
         X      -0.0005      Y      -0.0005      Z       0.0002
       Tot       0.0007
    Quadrupole Moments (Debye-Ang)
        XX     -19.5994     XY       0.0138     YY     -19.5189
        XZ       0.0000     YZ      -0.0016     ZZ     -19.5144
    Octopole Moments (Debye-Ang^2)
       XXX     -19.5103    XXY     -38.0658    XYY      -4.8344
       YYY    -116.7616    XXZ     -22.9252    XYZ      -0.0084
       YYZ     -23.7877    XZZ      -4.1147    YZZ     -37.9711
       ZZZ     -70.7113
    Hexadecapole Moments (Debye-Ang^3)
      XXXX   -1642.3857   XXXY     -16.4406   XXYY    -593.4350
      XYYY     -13.6527   YYYY   -1899.7860   XXXZ       3.4158
      XXYZ    -215.3602   XYYZ       0.0339   YYYZ    -656.5713
      XXZZ    -491.0352   XYZZ      -4.3532   YYZZ    -543.5244
      XZZZ       4.4596   YZZZ    -650.7221   ZZZZ   -1318.2307
 -----------------------------------------------------------------
 JobOver = TRUE
Archival summary:
1\1\sinatra\SP\ROProcedureUnspecified\6-31G*\e212()\nmayhall\MonMar2016:11:062017MonMar2016:11:062017\0\\#,ROProcedureUnspecified,6-31G*,\\0,13\H\H,1,1.8108\H,2,1.8111,1,60.0291\H,3,1.81133,2,60.0389,1,70.5227,0\H,1,2.837,2,152.386,3,178.05,0\H,5,1.8112,1,73.0863,2,-68.5028,0\H,6,1.81121,5,60.0005,1,-92.9521,0\H,7,1.81039,6,60.0315,5,-70.571,0\H,3,3.36154,2,143.857,1,-26.9399,0\H,9,1.81065,3,136.832,2,-173.059,0\H,9,1.81086,3,150.176,2,-59.9691,0\H,10,1.81131,9,60.0237,3,77.6154,0\He,10,14.1936,9,122.282,3,-143.419,0\He,10,14.4291,9,122.437,3,-31.7989,0\\HF=-11.4719543\\@

 Total job time:  0.50s(wall), 0.50s(cpu) 
 Mon Mar 20 16:11:06 2017

        *************************************************************
        *                                                           *
        *  Thank you very much for using Q-Chem.  Have a nice day.  *
        *                                                           *
        *************************************************************


*** MISSION COMPLETED -- STARFLEET OUT ***

