                  Welcome to Q-Chem
     A Quantum Leap Into The Future Of Chemistry


 Q-Chem 4.3, Q-Chem, Inc., Pleasanton, CA (2015)

 Y. Shao,  Z. Gan,  E. Epifanovsky,  A. T. B. Gilbert,  M. Wormit,  
 J. Kussmann,  A. W. Lange,  A. Behn,  J. Deng,  X. Feng,  D. Ghosh,  
 M. Goldey,  P. R. Horn,  L. D. Jacobson,  I. Kaliman,  R. Z. Khaliullin,  
 T. Kus,  A. Landau,  J. Liu,  E. I. Proynov,  Y. M. Rhee,  R. M. Richard,  
 M. A. Rohrdanz,  R. P. Steele,  E. J. Sundstrom,  H. L. Woodcock III,  
 P. M. Zimmerman,  D. Zuev,  B. Albrecht,  E. Alguire,  B. Austin,  
 S. A. Baeppler,  G. J. O. Beran,  Y. A. Bernard,  E. Berquist,  
 K. Brandhorst,  K. B. Bravaya,  S. T. Brown,  D. Casanova,  C.-M. Chang,  
 Y. Chen,  S. H. Chien,  K. D. Closser,  D. L. Crittenden,  M. Diedenhofen,  
 R. A. DiStasio Jr.,  H. Do,  A. D. Dutoi,  R. G. Edgar,  P.-T. Fang,  
 S. Fatehi,  Q. Feng,  L. Fusti-Molnar,  A. Ghysels,  
 A. Golubeva-Zadorozhnaya,  J. Gomes,  A. Gunina,  M. W. D. Hanson-Heine,  
 P. H. P. Harbach,  A. W. Hauser,  E. G. Hohenstein,  Z. C. Holden,  K. Hui,  
 T.-C. Jagau,  H. Ji,  B. Kaduk,  K. Khistyaev,  Jaehoon Kim,  Jihan Kim,  
 R. A. King,  P. Klunzinger,  D. Kosenkov,  T. Kowalczyk,  C. M. Krauter,  
 K. U. Lao,  A. Laurent,  K. V. Lawler,  S. Lehtola,  S. V. Levchenko,  
 C. Y. Lin,  Y.-S. Lin,  F. Liu,  E. Livshits,  R. C. Lochan,  A. Luenser,  
 P. Manohar,  S. F. Manzer,  S.-P. Mao,  N. Mardirossian,  A. V. Marenich,  
 L. A. Martinez-Martinez,  S. A. Maurer,  N. J. Mayhall,  K. Nanda,  
 C. M. Oana,  R. Olivares-Amaya,  D. P. O'Neill,  J. A. Parkhill,  
 T. M. Perrine,  R. Peverati,  P. A. Pieniazek,  F. Plasser,  A. Prociuk,  
 D. R. Rehn,  E. Rosta,  N. J. Russ,  N. Sergueev,  S. M. Sharada,  
 S. Sharma,  D. W. Small,  A. Sodt,  T. Stauch,  T. Stein,  D. Stuck,  
 Y.-C. Su,  A. J. W. Thom,  T. Tsuchimochi,  L. Vogt,  O. Vydrov,  T. Wang,  
 M. A. Watson,  J. Wenzel,  A. White,  C. F. Williams,  V. Vanovschi,  
 S. Yeganeh,  S. R. Yost,  Z.-Q. You,  I. Y. Zhang,  X. Zhang,  Y. Zhao,  
 B. R. Brooks,  G. K. L. Chan,  D. M. Chipman,  C. J. Cramer,  
 W. A. Goddard III,  M. S. Gordon,  W. J. Hehre,  A. Klamt,  
 H. F. Schaefer III,  M. W. Schmidt,  C. D. Sherrill,  D. G. Truhlar,  
 A. Warshel,  X. Xu,  A. Aspuru-Guzik,  R. Baer,  A. T. Bell,  N. A. Besley,  
 J.-D. Chai,  A. Dreuw,  B. D. Dunietz,  T. R. Furlani,  S. R. Gwaltney,  
 C.-P. Hsu,  Y. Jung,  J. Kong,  D. S. Lambrecht,  W. Liang,  C. Ochsenfeld,  
 V. A. Rassolov,  L. V. Slipchenko,  J. E. Subotnik,  T. Van Voorhis,  
 J. M. Herbert,  A. I. Krylov,  P. M. W. Gill,  M. Head-Gordon

 Contributors to earlier versions of Q-Chem not listed above: 
 R. D. Adamson,  J. Baker,  E. F. C. Byrd,  A. K. Chakraborty,  C.-L. Cheng,  
 H. Dachsel,  R. J. Doerksen,  G. Hawkins,  A. Heyden,  S. Hirata,  
 G. Kedziora,  F. J. Keil,  C. Kelley,  P. P. Korambath,  W. Kurlancheek,  
 A. M. Lee,  M. S. Lee,  D. Liotard,  I. Lotan,  P. E. Maslen,  N. Nair,  
 D. Neuhauser,  R. Olson,  B. Peters,  J. Ritchie,  N. E. Schultz,  
 N. Shenvi,  A. C. Simmonett,  K. S. Thanthiriwatte,  Q. Wu,  W. Zhang

 Please cite Q-Chem as follows:
 Y. Shao et al., Mol. Phys. 113, 184-215 (2015)
 DOI: 10.1080/00268976.2014.952696

 Q-Chem 4.3.0 for Intel X86 EM64T Linux

 Parts of Q-Chem use Armadillo 5.200.1 (Boston Tea Smuggler).
 http://arma.sourceforge.net/

 Q-Chem begins on Fri Mar 24 23:16:45 2017  


Host: 0

     Scratch files written to /home/nmayhall/scratch_qchem/qchem7166//
 Dec1416 |home|nmayhall|qcSoftware|qchem|qchem.svn-casman|libmdc|qstr_RNUM -1
 Using version located at /home/nmayhall/qcSoftware/qchem/qchem.svn-casman/bin/qchem


Total Memory Limit in MB = 2000
Mega-Array Size in MB = 62

Checking the input file for inconsistencies... 	...done.

 Q-Chem warning in module /home/nmayhall/qcSoftware/qchem/qchem.svn-casman/forms1/BasisType.C, line 1452:

 You are not using the predefined 5D/6D in this basis set.

Finally everything over in PARseQInput

--------------------------------------------------------------
User input:
--------------------------------------------------------------
$rem
	exchange 		hf
	unrestricted		1
	basis			6-31g*	
	aux_basis		rimp2-vdz
	scf_guess		core	
	scf_convergence		8
	purecart		1111

	symmetry		0
	sym_ignore		1

	!correlation		sf-cas
	!cas_n_spin_flip		1
	!cas_local		1
	gui			2
$end

$development
	1sf_heis_projection	1
$end

$molecule
0 13
H	-0.73854	-0.54065	0.08576
H	-2.3134	-1.01748	-0.67017
H	-2.09582	0.65549	-0.01146
H	-2.21044	-0.75437	1.11995
H	21.47674	24.27203	20.09828
H	20.1685	24.86022	21.20546
H	20.18287	23.1348	20.65668
H	19.78314	24.45528	19.48257
H	3.4885	-0.87553	-0.06084
H	2.29649	0.48578	-0.00191
H	1.9396	-1.06676	0.85992
H	1.91588	-1.00965	-0.95022
He	10	10	10
He	-10	10	10
$end


--------------------------------------------------------------
 ----------------------------------------------------------------
             Standard Nuclear Orientation (Angstroms)
    I     Atom           X                Y                Z
 ----------------------------------------------------------------
    1      H      -0.7385400000    -0.5406500000     0.0857600000
    2      H      -2.3134000000    -1.0174800000    -0.6701700000
    3      H      -2.0958200000     0.6554900000    -0.0114600000
    4      H      -2.2104400000    -0.7543700000     1.1199500000
    5      H      21.4767400000    24.2720300000    20.0982800000
    6      H      20.1685000000    24.8602200000    21.2054600000
    7      H      20.1828700000    23.1348000000    20.6566800000
    8      H      19.7831400000    24.4552800000    19.4825700000
    9      H       3.4885000000    -0.8755300000    -0.0608400000
   10      H       2.2964900000     0.4857800000    -0.0019100000
   11      H       1.9396000000    -1.0667600000     0.8599200000
   12      H       1.9158800000    -1.0096500000    -0.9502200000
   13      He     10.0000000000    10.0000000000    10.0000000000
   14      He    -10.0000000000    10.0000000000    10.0000000000
 ----------------------------------------------------------------
 Nuclear Repulsion Energy =     9.0941977375 hartrees
 There are       14 alpha and        2 beta electrons
 Requested basis set is 6-31G(d)
 There are 28 shells and 28 basis functions

Total QAlloc Memory Limit   2000 MB
Mega-Array Size        61 MB
MEM_STATIC part        62 MB

finished with qalloc call

                       Distance Matrix (Angstroms)
             H (  1)   H (  2)   H (  3)   H (  4)   H (  5)   H (  6)
   H (  2)  1.810796
   H (  3)  1.811743  1.811096
   H (  4)  1.811550  1.812280  1.811334
   H (  5) 38.854713 40.458109 38.959058 39.339296
   H (  6) 39.094120 40.664903 39.137279 39.501290  1.811990
   H (  7) 37.701394 39.296938 37.799886 38.129209  1.810857  1.810646
   H (  8) 37.711697 39.284240 37.750975 38.163200  1.811342  1.811306
   H (  9)  4.242818  5.835536  5.790604  5.821242 36.910252 37.320326
   H ( 10)  3.205098  4.894635  4.395598  4.807178 36.574381 36.922549
   H ( 11)  2.836997  4.520134  4.473261  4.169896 37.334550 37.662210
   H ( 12)  2.887761  4.238549  4.443838  4.623558 38.273097 38.643013
   He( 13) 18.019814 19.668686 18.271783 18.536629 20.913672 21.208179
   He( 14) 17.180573 17.155792 15.812187 15.974636 36.006267 35.447523
             H (  7)   H (  8)   H (  9)   H ( 10)   H ( 11)   H ( 12)
   H (  8)  1.811625
   H (  9) 35.838716 35.904179
   H ( 10) 35.491943 35.495983  1.810394
   H ( 11) 36.200057 36.284563  1.812032  1.811216
   H ( 12) 37.195370 37.218282  1.811662  1.811206  1.811196
   He( 13) 19.742812 19.864141 16.183241 15.808310 16.461600 17.506362
   He( 14) 34.599038 34.437039 20.035900 18.486813 18.669984 19.573143
             He( 13)
   He( 14) 20.000000


 Q-Chem warning in module /home/nmayhall/qcSoftware/qchem/qchem.svn-casman/forms1/BasisType.C, line 1375:

 SAD: How to set up polarization functions for non-Pople basis?

 Requested basis set is rimp2-VDZ
 There are 82 shells and 186 basis functions
 Job number = 2, Threshold = 1.00E-11
Integral type ranges set in mkLRange.C for JobNum: 2  <1-7|1-7>
Symmetry turned off temporarily
 Using the largest function pair in Schwarz integrals
Total number of integrals generated =             898
Symmetry turned back on
 A cutoff of  1.0D-11 yielded    172 shell pairs
 There are       172 function pairs
 Job number = 11, Threshold = 1.00E-11
Integral type ranges set in mkLRange.C for JobNum: 11  <1-1|8-8>

 -------------------------------------------------------
 OpenMP Integral Computing Module                       
 Release: version 1.0, May 2013, Q-Chem Inc. Pittsburgh 
 -------------------------------------------------------
 Integral Job Info:
 Integral job number is                      11
 Integral operator is                         1
 short-range coefficients                     0
 long-range coefficients              100000000
 Omega coefficients                           0
 if combine SR and LR in K                    0
 Integral screening is                        0
 Integral computing path is                   2
 max size of driver memory is            800000
 size of driver memory is                 11780
 size of scratch memory is               800000
 max col of scratch BK array                289
 max len of scratch array in speh3            1
 max len of scratch index in speh4            2
 max int batch size is                      520
 min int batch size is                       52
 fixed nKL is                               520
 max L of basis functions is                  0
 order of int derivative is                   0
 number of shells is                         28
 number of basis is                          28
 number of cartesian basis is                28
 number of contracted shell pairs           172
 number of primitive shell pairs            550
 maxK2 (contraction) of shell pair            9
 max number of K2 of shell pair               1
 max number of CS2 of shell pair             82
 max number of PS2 of shell pair            246
 mem total for path MDJ                    6000
 -------------------------------------------------------
 Smallest overlap matrix eigenvalue = 2.12E-01
 Multipole matrices computed through 2nd order

  Scale SEOQF with 1.000000e-03/1.000000e-03/1.000000e-03

 Standard Electronic Orientation quadrupole field applied
 Nucleus-field energy     =     0.0000000005 hartrees
GuessMan:  IGuess = 1
 Guess MOs from core Hamiltonian diagonalization
scfman initvdwdat 
 An unrestricted Hartree-Fock SCF calculation will be
 performed using Pulay DIIS extrapolation
 SCF converges when DIIS error is below 1.0E-08
Finding J and K together
 Job number = 22, Threshold = 1.00E-11
Integral type ranges set in mkLRange.C for JobNum: 22  <1-1|1-1>
Storing 12220.61% of integrals
Total number of integrals generated =           14153
 MakeJK  time:  CPU       0.01 s  wall       0.01 s
Fock build time:  0.01 s (CPU) 0.01 s (wall)
DIIS Errors:  Max 6.75E-01 RMS 4.96E-02

Current DIIS subspace size = 1
REM_GRID_RESTART_DIIS = 0

 ---------------------------------------
  Cycle       Energy         DIIS Error
 ---------------------------------------
    1     -11.1938874072      4.96E-02  00000
Finding J and K together
 Job number = 22, Threshold = 1.00E-11
Integral type ranges set in mkLRange.C for JobNum: 22  <1-1|1-1>
Storing 12220.61% of integrals
Reusing in-core integrals buffer for job 22
 MakeJK  time:  CPU       0.00 s  wall       0.00 s
Fock build time:  0.00 s (CPU) 0.00 s (wall)
DIIS Errors:  Max 5.65E-02 RMS 5.12E-03

Current DIIS subspace size = 2
REM_GRID_RESTART_DIIS = 0

    2     -11.4667581233      5.12E-03  00000
Finding J and K together
 Job number = 22, Threshold = 1.00E-11
Integral type ranges set in mkLRange.C for JobNum: 22  <1-1|1-1>
Storing 12220.61% of integrals
Reusing in-core integrals buffer for job 22
 MakeJK  time:  CPU       0.00 s  wall       0.00 s
Fock build time:  0.00 s (CPU) 0.00 s (wall)
DIIS Errors:  Max 4.51E-03 RMS 7.47E-04

Current DIIS subspace size = 3
REM_GRID_RESTART_DIIS = 0

    3     -11.4720125901      7.47E-04  00000
Finding J and K together
 Job number = 22, Threshold = 1.00E-11
Integral type ranges set in mkLRange.C for JobNum: 22  <1-1|1-1>
Storing 12220.61% of integrals
Reusing in-core integrals buffer for job 22
 MakeJK  time:  CPU       0.00 s  wall       0.00 s
Fock build time:  0.00 s (CPU) 0.00 s (wall)
DIIS Errors:  Max 1.81E-04 RMS 2.45E-05

Current DIIS subspace size = 4
REM_GRID_RESTART_DIIS = 0

    4     -11.4722330979      2.45E-05  00000
Finding J and K together
 Job number = 22, Threshold = 1.00E-11
Integral type ranges set in mkLRange.C for JobNum: 22  <1-1|1-1>
Storing 12220.61% of integrals
Reusing in-core integrals buffer for job 22
 MakeJK  time:  CPU       0.00 s  wall       0.00 s
Fock build time:  0.00 s (CPU) 0.00 s (wall)
DIIS Errors:  Max 3.52E-05 RMS 2.52E-06

Current DIIS subspace size = 5
REM_GRID_RESTART_DIIS = 0

    5     -11.4722332320      2.52E-06  00000
Finding J and K together
 Job number = 22, Threshold = 1.00E-11
Integral type ranges set in mkLRange.C for JobNum: 22  <1-1|1-1>
Storing 12220.61% of integrals
Reusing in-core integrals buffer for job 22
 MakeJK  time:  CPU       0.00 s  wall       0.00 s
Fock build time:  0.00 s (CPU) 0.00 s (wall)
DIIS Errors:  Max 2.91E-06 RMS 2.09E-07

Current DIIS subspace size = 6
REM_GRID_RESTART_DIIS = 0

    6     -11.4722332326      2.09E-07  00000
Finding J and K together
 Job number = 22, Threshold = 1.00E-11
Integral type ranges set in mkLRange.C for JobNum: 22  <1-1|1-1>
Storing 12220.61% of integrals
Reusing in-core integrals buffer for job 22
 MakeJK  time:  CPU       0.00 s  wall       0.00 s
Fock build time:  0.00 s (CPU) 0.00 s (wall)
DIIS Errors:  Max 6.12E-08 RMS 5.22E-09

Current DIIS subspace size = 7
REM_GRID_RESTART_DIIS = 0

    7     -11.4722332326      5.22E-09  00000 Convergence criterion met
 ---------------------------------------
 <S^2> = 42.0000
 SCF time:  CPU 0.02 s  wall 0.02 s
 SCF   energy in the final basis set = -11.4722332326
 Total energy in the final basis set = -11.4722332326
Symmetry turned off temporarily
 Analysis of SCF Wavefunction

 --------------------------------------------------------------

                    Orbital Energies (a.u.)
 --------------------------------------------------------------

 Alpha MOs
 -- Occupied --
 -0.914  -0.914  -0.708  -0.703  -0.698  -0.469  -0.455  -0.455
 -0.454  -0.454  -0.454  -0.453  -0.452  -0.439
 -- Virtual --
  0.844   0.905   0.909   0.917   0.917   0.917   0.924   0.928
  0.981   1.063   1.076   1.150   1.400   1.400

 Beta MOs
 -- Occupied --
 -0.914  -0.914
 -- Virtual --
 -0.047  -0.040  -0.033   0.140   0.160   0.161   0.163   0.163
  0.163   0.165   0.166   0.193   1.064   1.112   1.114   1.120
  1.120   1.120   1.127   1.130   1.178   1.266   1.279   1.345
  1.400   1.400
 --------------------------------------------------------------

          Ground-State Mulliken Net Atomic Charges

     Atom                 Charge (a.u.)    Spin (a.u.)
  --------------------------------------------------------
      1 H                     0.000112       0.999888
      2 H                     0.000007       0.999993
      3 H                    -0.000001       1.000001
      4 H                     0.000002       0.999998
      5 H                    -0.000001       1.000001
      6 H                    -0.000000       1.000000
      7 H                     0.000002       0.999998
      8 H                    -0.000001       1.000001
      9 H                     0.000064       0.999936
     10 H                    -0.000053       1.000053
     11 H                    -0.000065       1.000065
     12 H                    -0.000066       1.000066
     13 He                    0.000000       0.000000
     14 He                    0.000000       0.000000
  --------------------------------------------------------
  Sum of atomic charges =     0.000000
  Sum of spin   charges =    12.000000

 -----------------------------------------------------------------
                    Cartesian Multipole Moments
 -----------------------------------------------------------------
    Charge (ESU x 10^10)
                 0.0000
    Dipole Moment (Debye)
         X      -0.0006      Y      -0.0005      Z       0.0001
       Tot       0.0008
    Quadrupole Moments (Debye-Ang)
        XX     -19.5956     XY       0.0137     YY     -19.5145
        XZ       0.0003     YZ      -0.0001     ZZ     -19.5154
    Octopole Moments (Debye-Ang^2)
       XXX    -368.1402    XXY    -154.8824    XYY    -121.0797
       YYY    -467.1654    XXZ    -139.1340    XYZ      -0.0170
       YYZ    -140.0109    XZZ    -120.3125    YZZ    -154.7561
       ZZZ    -419.3150
    Hexadecapole Moments (Debye-Ang^3)
      XXXX  -16208.6797   XXXY   -8612.0352   XXYY   -6307.1918
      XYYY   -8556.3949   YYYY  -21656.3889   XXXZ   -7223.6259
      XXYZ   -3063.6580   XYYZ   -2419.2791   YYYZ   -9231.4759
      XXZZ   -5280.9799   XYZZ   -2863.4240   YYZZ   -6290.8369
      XZZZ   -7205.8154   YZZZ   -9233.6824   ZZZZ  -15761.5362
 -----------------------------------------------------------------
 JobOver = TRUE
Archival summary:
1\1\sinatra\SP\HF\6-31G*\e212()\nmayhall\FriMar2423:16:452017FriMar2423:16:452017\0\\#,HF,6-31G*,\\0,13\H\H,1,1.8108\H,2,1.8111,1,60.0291\H,3,1.81133,2,60.0389,1,70.5227,0\H,1,2.837,2,152.386,3,178.05,0\H,5,1.8112,1,73.0863,2,-68.5028,0\H,6,1.81121,5,60.0005,1,-92.9521,0\H,7,1.81039,6,60.0315,5,-70.571,0\He,7,15.8083,6,158.527,5,-60.8442,0\He,3,15.8122,2,135.735,1,128.038,0\H,9,19.7428,7,173.346,6,-112.135,0\H,11,1.81065,9,142.512,7,-67.7286,0\H,11,1.81086,9,128.308,7,21.3783,0\H,12,1.81131,11,60.0237,9,44.5891,0\\HF=-11.4722332\\@

 Total job time:  0.08s(wall), 0.07s(cpu) 
 Fri Mar 24 23:16:45 2017

        *************************************************************
        *                                                           *
        *  Thank you very much for using Q-Chem.  Have a nice day.  *
        *                                                           *
        *************************************************************


*** MISSION COMPLETED -- STARFLEET OUT ***

 
User input: 2 of 2 
 
                  Welcome to Q-Chem
     A Quantum Leap Into The Future Of Chemistry


 Q-Chem 4.3, Q-Chem, Inc., Pleasanton, CA (2015)

 Y. Shao,  Z. Gan,  E. Epifanovsky,  A. T. B. Gilbert,  M. Wormit,  
 J. Kussmann,  A. W. Lange,  A. Behn,  J. Deng,  X. Feng,  D. Ghosh,  
 M. Goldey,  P. R. Horn,  L. D. Jacobson,  I. Kaliman,  R. Z. Khaliullin,  
 T. Kus,  A. Landau,  J. Liu,  E. I. Proynov,  Y. M. Rhee,  R. M. Richard,  
 M. A. Rohrdanz,  R. P. Steele,  E. J. Sundstrom,  H. L. Woodcock III,  
 P. M. Zimmerman,  D. Zuev,  B. Albrecht,  E. Alguire,  B. Austin,  
 S. A. Baeppler,  G. J. O. Beran,  Y. A. Bernard,  E. Berquist,  
 K. Brandhorst,  K. B. Bravaya,  S. T. Brown,  D. Casanova,  C.-M. Chang,  
 Y. Chen,  S. H. Chien,  K. D. Closser,  D. L. Crittenden,  M. Diedenhofen,  
 R. A. DiStasio Jr.,  H. Do,  A. D. Dutoi,  R. G. Edgar,  P.-T. Fang,  
 S. Fatehi,  Q. Feng,  L. Fusti-Molnar,  A. Ghysels,  
 A. Golubeva-Zadorozhnaya,  J. Gomes,  A. Gunina,  M. W. D. Hanson-Heine,  
 P. H. P. Harbach,  A. W. Hauser,  E. G. Hohenstein,  Z. C. Holden,  K. Hui,  
 T.-C. Jagau,  H. Ji,  B. Kaduk,  K. Khistyaev,  Jaehoon Kim,  Jihan Kim,  
 R. A. King,  P. Klunzinger,  D. Kosenkov,  T. Kowalczyk,  C. M. Krauter,  
 K. U. Lao,  A. Laurent,  K. V. Lawler,  S. Lehtola,  S. V. Levchenko,  
 C. Y. Lin,  Y.-S. Lin,  F. Liu,  E. Livshits,  R. C. Lochan,  A. Luenser,  
 P. Manohar,  S. F. Manzer,  S.-P. Mao,  N. Mardirossian,  A. V. Marenich,  
 L. A. Martinez-Martinez,  S. A. Maurer,  N. J. Mayhall,  K. Nanda,  
 C. M. Oana,  R. Olivares-Amaya,  D. P. O'Neill,  J. A. Parkhill,  
 T. M. Perrine,  R. Peverati,  P. A. Pieniazek,  F. Plasser,  A. Prociuk,  
 D. R. Rehn,  E. Rosta,  N. J. Russ,  N. Sergueev,  S. M. Sharada,  
 S. Sharma,  D. W. Small,  A. Sodt,  T. Stauch,  T. Stein,  D. Stuck,  
 Y.-C. Su,  A. J. W. Thom,  T. Tsuchimochi,  L. Vogt,  O. Vydrov,  T. Wang,  
 M. A. Watson,  J. Wenzel,  A. White,  C. F. Williams,  V. Vanovschi,  
 S. Yeganeh,  S. R. Yost,  Z.-Q. You,  I. Y. Zhang,  X. Zhang,  Y. Zhao,  
 B. R. Brooks,  G. K. L. Chan,  D. M. Chipman,  C. J. Cramer,  
 W. A. Goddard III,  M. S. Gordon,  W. J. Hehre,  A. Klamt,  
 H. F. Schaefer III,  M. W. Schmidt,  C. D. Sherrill,  D. G. Truhlar,  
 A. Warshel,  X. Xu,  A. Aspuru-Guzik,  R. Baer,  A. T. Bell,  N. A. Besley,  
 J.-D. Chai,  A. Dreuw,  B. D. Dunietz,  T. R. Furlani,  S. R. Gwaltney,  
 C.-P. Hsu,  Y. Jung,  J. Kong,  D. S. Lambrecht,  W. Liang,  C. Ochsenfeld,  
 V. A. Rassolov,  L. V. Slipchenko,  J. E. Subotnik,  T. Van Voorhis,  
 J. M. Herbert,  A. I. Krylov,  P. M. W. Gill,  M. Head-Gordon

 Contributors to earlier versions of Q-Chem not listed above: 
 R. D. Adamson,  J. Baker,  E. F. C. Byrd,  A. K. Chakraborty,  C.-L. Cheng,  
 H. Dachsel,  R. J. Doerksen,  G. Hawkins,  A. Heyden,  S. Hirata,  
 G. Kedziora,  F. J. Keil,  C. Kelley,  P. P. Korambath,  W. Kurlancheek,  
 A. M. Lee,  M. S. Lee,  D. Liotard,  I. Lotan,  P. E. Maslen,  N. Nair,  
 D. Neuhauser,  R. Olson,  B. Peters,  J. Ritchie,  N. E. Schultz,  
 N. Shenvi,  A. C. Simmonett,  K. S. Thanthiriwatte,  Q. Wu,  W. Zhang

 Please cite Q-Chem as follows:
 Y. Shao et al., Mol. Phys. 113, 184-215 (2015)
 DOI: 10.1080/00268976.2014.952696

 Q-Chem 4.3.0 for Intel X86 EM64T Linux

 Parts of Q-Chem use Armadillo 5.200.1 (Boston Tea Smuggler).
 http://arma.sourceforge.net/

 Q-Chem begins on Fri Mar 24 23:16:45 2017  


Host: 0

     Scratch files written to /home/nmayhall/scratch_qchem/qchem7166//
 Dec1416 |home|nmayhall|qcSoftware|qchem|qchem.svn-casman|libmdc|qstr_RNUM -1
 Using version located at /home/nmayhall/qcSoftware/qchem/qchem.svn-casman/bin/qchem

 Turning off symmetry for CASMAN

Total Memory Limit in MB = 2000
Mega-Array Size in MB = 62

Checking the input file for inconsistencies... 	...done.

 Q-Chem warning in module /home/nmayhall/qcSoftware/qchem/qchem.svn-casman/forms1/BasisType.C, line 1452:

 You are not using the predefined 5D/6D in this basis set.

Finally everything over in PARseQInput

--------------------------------------------------------------
User input:
--------------------------------------------------------------
$rem
	exchange 		hf
	unrestricted		0
	basis			6-31g*	
	aux_basis		rimp2-vdz
	scf_guess		read	
	scf_convergence		8
	purecart		1111

	symmetry		0
	sym_ignore		1

	correlation		sf-cas
	cas_n_spin_flip		1
	cas_local		1
	gui			2
$end

$development
	1sf_heis_projection	1
	scf_corresponding_orbs	1
        heisenberg_n_roots	1000
$end

$molecule
read
$end

--------------------------------------------------------------
 ----------------------------------------------------------------
             Standard Nuclear Orientation (Angstroms)
    I     Atom           X                Y                Z
 ----------------------------------------------------------------
    1      H      -0.7385400000    -0.5406500000     0.0857600000
    2      H      -2.3134000000    -1.0174800000    -0.6701700000
    3      H      -2.0958200000     0.6554900000    -0.0114600000
    4      H      -2.2104400000    -0.7543700000     1.1199500000
    5      H      21.4767400000    24.2720300000    20.0982800000
    6      H      20.1685000000    24.8602200000    21.2054600000
    7      H      20.1828700000    23.1348000000    20.6566800000
    8      H      19.7831400000    24.4552800000    19.4825700000
    9      H       3.4885000000    -0.8755300000    -0.0608400000
   10      H       2.2964900000     0.4857800000    -0.0019100000
   11      H       1.9396000000    -1.0667600000     0.8599200000
   12      H       1.9158800000    -1.0096500000    -0.9502200000
   13      He     10.0000000000    10.0000000000    10.0000000000
   14      He    -10.0000000000    10.0000000000    10.0000000000
 ----------------------------------------------------------------
 Nuclear Repulsion Energy =     9.0941977375 hartrees
 There are       14 alpha and        2 beta electrons
 Requested basis set is 6-31G(d)
 There are 28 shells and 28 basis functions

Total QAlloc Memory Limit   2000 MB
Mega-Array Size        61 MB
MEM_STATIC part        62 MB

finished with qalloc call

                       Distance Matrix (Angstroms)
             H (  1)   H (  2)   H (  3)   H (  4)   H (  5)   H (  6)
   H (  2)  1.810796
   H (  3)  1.811743  1.811096
   H (  4)  1.811550  1.812280  1.811334
   H (  5) 38.854713 40.458109 38.959058 39.339296
   H (  6) 39.094120 40.664903 39.137279 39.501290  1.811990
   H (  7) 37.701394 39.296938 37.799886 38.129209  1.810857  1.810646
   H (  8) 37.711697 39.284240 37.750975 38.163200  1.811342  1.811306
   H (  9)  4.242818  5.835536  5.790604  5.821242 36.910252 37.320326
   H ( 10)  3.205098  4.894635  4.395598  4.807178 36.574381 36.922549
   H ( 11)  2.836997  4.520134  4.473261  4.169896 37.334550 37.662210
   H ( 12)  2.887761  4.238549  4.443838  4.623558 38.273097 38.643013
   He( 13) 18.019814 19.668686 18.271783 18.536629 20.913672 21.208179
   He( 14) 17.180573 17.155792 15.812187 15.974636 36.006267 35.447523
             H (  7)   H (  8)   H (  9)   H ( 10)   H ( 11)   H ( 12)
   H (  8)  1.811625
   H (  9) 35.838716 35.904179
   H ( 10) 35.491943 35.495983  1.810394
   H ( 11) 36.200057 36.284563  1.812032  1.811216
   H ( 12) 37.195370 37.218282  1.811662  1.811206  1.811196
   He( 13) 19.742812 19.864141 16.183241 15.808310 16.461600 17.506362
   He( 14) 34.599038 34.437039 20.035900 18.486813 18.669984 19.573143
             He( 13)
   He( 14) 20.000000


 Q-Chem warning in module /home/nmayhall/qcSoftware/qchem/qchem.svn-casman/forms1/BasisType.C, line 1375:

 SAD: How to set up polarization functions for non-Pople basis?

 Requested basis set is rimp2-VDZ
 There are 82 shells and 186 basis functions
 Job number = 2, Threshold = 1.00E-12
Integral type ranges set in mkLRange.C for JobNum: 2  <1-7|1-7>
Symmetry turned off temporarily
 Using the largest function pair in Schwarz integrals
Total number of integrals generated =             899
Symmetry turned back on
 A cutoff of  1.0D-12 yielded    173 shell pairs
 There are       173 function pairs
 Job number = 11, Threshold = 1.00E-12
Integral type ranges set in mkLRange.C for JobNum: 11  <1-1|8-8>

 -------------------------------------------------------
 OpenMP Integral Computing Module                       
 Release: version 1.0, May 2013, Q-Chem Inc. Pittsburgh 
 -------------------------------------------------------
 Integral Job Info:
 Integral job number is                      11
 Integral operator is                         1
 short-range coefficients                     0
 long-range coefficients              100000000
 Omega coefficients                           0
 if combine SR and LR in K                    0
 Integral screening is                        0
 Integral computing path is                   2
 max size of driver memory is            800000
 size of driver memory is                 11780
 size of scratch memory is               800000
 max col of scratch BK array                289
 max len of scratch array in speh3            1
 max len of scratch index in speh4            2
 max int batch size is                      520
 min int batch size is                       52
 fixed nKL is                               520
 max L of basis functions is                  0
 order of int derivative is                   0
 number of shells is                         28
 number of basis is                          28
 number of cartesian basis is                28
 number of contracted shell pairs           173
 number of primitive shell pairs            551
 maxK2 (contraction) of shell pair            9
 max number of K2 of shell pair               1
 max number of CS2 of shell pair             82
 max number of PS2 of shell pair            246
 mem total for path MDJ                    6000
 -------------------------------------------------------
 Smallest overlap matrix eigenvalue = 2.12E-01
 Multipole matrices computed through 2nd order

  Scale SEOQF with 1.000000e-03/1.000000e-03/1.000000e-03

 Standard Electronic Orientation quadrupole field applied
 Nucleus-field energy     =     0.0000000005 hartrees
GuessMan:  IGuess = 1000
 Guess MOs from SCF MO coefficient file
 Reading MOs from coefficient file
 Reading MOs from coefficient file
scfman initvdwdat 
 A restricted Hartree-Fock SCF calculation will be
 performed using Geometric Direct Minimization
 SCF converges when RMS gradient is below 1.0E-08
Finding J and K together
 Job number = 22, Threshold = 1.00E-12
Integral type ranges set in mkLRange.C for JobNum: 22  <1-1|1-1>
Storing 12080.14% of integrals
Total number of integrals generated =           14360
 MakeJK  time:  CPU       0.00 s  wall       0.01 s
Fock build time:  0.00 s (CPU) 0.01 s (wall)
 ---------------------------------------
  Cycle       Energy        RMS Gradient
 ---------------------------------------
    1     -11.4722332326      2.44E-09  00000 Normal BFGS step
Finding J and K together
 Job number = 22, Threshold = 1.00E-12
Integral type ranges set in mkLRange.C for JobNum: 22  <1-1|1-1>
Storing 12080.14% of integrals
Reusing in-core integrals buffer for job 22
 MakeJK  time:  CPU       0.00 s  wall       0.00 s
Fock build time:  0.00 s (CPU) 0.00 s (wall)
    2     -11.4722332326      2.80E-10  00000 Convergence criterion met
 ---------------------------------------
 SCF time:  CPU 0.01 s  wall 0.01 s
 Obtaining Corresponding orbitals

 Forming corresponding orbitals block-by-block...
 Size of singly occupied alpha block:      12 : 12.0000
 Size of doubly occupied block:             2 : 2.0000
 Size of singly occupied beta block:        0 : 0.0000
 Size of unoccupied block:                 14 : 14.0000
 Use scf_boys =     0 (Canonical)
                    1 (Boys)
                    2 (Pipek-Mezey)
                    3 (ER)
 Build new fock matrix
 I'm here
 I'm here
 Calling AOints...
 Job number = 22, Threshold = 1.00E-12
Integral type ranges set in mkLRange.C for JobNum: 22  <1-1|1-1>
Storing 12080.14% of integrals
 done.
 E(SCF): disk=    -11.472233232599 current=    -11.472233232599 diff=  -7.105e-15
 SCF   energy in the final basis set = -11.4722332326
 Total energy in the final basis set = -11.4722332326
 DevKeyword Parameters: 
 1sf_heis_projection                   1
  heisenberg_n_roots                1000
scf_corresponding_orbs                   1


 ========================================================
                       In SF-CAS-CI                      
 ========================================================
 DevKeyword Parameters: 
 1sf_heis_projection                   1
  heisenberg_n_roots                1000
scf_corresponding_orbs                   1

 Forming orbitals for SF-CAS calculation.
NBas   : 28
NOrb   : 28
NDOcc  : 2
NSOcc  : 12
NDVir  : 14
ISpin  : 0
e_hf: -11.47223323
 Using OPT1 Orbitals: Favg | Favg | Favg 
 A/B mix in Doubly occupied F  : 0.50000000
 A/B mix in Singly occupied F  : 0.50000000
 A/B mix in Doubly unoccupied F: 0.50000000
 Max of F(beta)ds      : 6.521e-16
 Max of F(alpha)sv     : 1.105e-11
 Max of F(average)dv   : 5.172e-12
 Orbital Energies  (D):
    1    -0.91413070    -0.91413070
    2    -0.91412689    -0.91412689
 Orbital Energies  (S):
    3    -0.36441346    -0.36441346
    4    -0.35856497    -0.35856497
    5    -0.35299562    -0.35299562
    6    -0.14407578    -0.14407578
    7    -0.12858897    -0.12858897
    8    -0.12798045    -0.12798045
    9    -0.12700985    -0.12700985
   10    -0.12697735    -0.12697735
   11    -0.12679312    -0.12679312
   12    -0.12545301    -0.12545301
   13    -0.12473797    -0.12473797
   14    -0.10738232    -0.10738232
 Orbital Energies  (V):
   15     0.93351318     0.93351318
   16     0.98951195     0.98951195
   17     0.99277173     0.99277173
   18     0.99968701     0.99968701
   19     0.99981711     0.99981711
   20     0.99984120     0.99984120
   21     1.00710468     1.00710468
   22     1.01086679     1.01086679
   23     1.06342881     1.06342881
   24     1.15174595     1.15174595
   25     1.16465780     1.16465780
   26     1.23556152     1.23556152
   27     1.39985526     1.39985526
   28     1.39985908     1.39985908
 tr(Pa)     :   14.0000000000
 tr(Pb)     :    2.0000000000
 E(core) with new P : -31.28275848
 E(HF) with new P   : -11.47223323
 Difference in Ehf  :  -7.1054e-15

 Number of spin flips: 1
 Use cas_local =    0 (Canonical)
                    1 (Boys)
                    2 (Pipek-Mezey)
                    3 (ER)
 Using Boys orbitals in casman
 
 
 
Calling Get_Boys in C++
 
 
 
Orbital 2 Variance 6.29908767
Orbital 8 Variance 6.80325382
Orbital 7 Variance 6.99035791
Orbital 9 Variance 7.76229670
Orbital 12 Variance 20.50191292
Orbital 1 Variance 21.39203248
Orbital 4 Variance 21.51249305
Orbital 5 Variance 21.72659823
Orbital 11 Variance 21.82696933
Orbital 3 Variance 23.39219898
Orbital 10 Variance 23.99625832
Orbital 6 Variance 24.17796087
          ***** NUMBER OF SADDLE POINTS SO FAR = 0 ******

Initially in boys_jacobi.C before sweep, get_boys, boysval = 20244.610856
In BOYS_JACOBI SWEEPS for get_boys, ending in round     5  because max_diff = 4.738941e-07


---> BEGIN 2nd Der Calculation    ******  
Guessing MaxD =  20 and MinD = 10
in get_boys.C: p = 0 guessthresh  52.5852671374 numsofar 18 MinD 10
in get_boys.C: p = 1 guessthresh  52.0852671374 numsofar 18 MinD 10
in get_boys.C: p = 2 guessthresh  51.8352671374 numsofar 18 MinD 10
in get_boys.C: p = 3 guessthresh  51.7102671374 numsofar 4 MinD 10
DimInGuess 4 mineval  51.5852671374 guessthresh  51.7102671374
round 0 sizeofsub 4 eval0 5.096317e+01 diffeval0 1.000500e+05 length_qM 1.114115e+00 thresh 1.000000e-08
round 1 sizeofsub 5 eval0 5.036523e+01 diffeval0 5.979384e-01 length_qM 1.037782e-01 thresh 1.000000e-08
round 2 sizeofsub 6 eval0 5.036478e+01 diffeval0 4.492276e-04 length_qM 1.801497e-01 thresh 1.000000e-08
round 3 sizeofsub 7 eval0 5.036391e+01 diffeval0 8.752566e-04 length_qM 1.510829e-02 thresh 1.000000e-08
round 4 sizeofsub 8 eval0 5.036390e+01 diffeval0 1.184580e-05 length_qM 3.351335e-02 thresh 1.000000e-08
round 5 sizeofsub 9 eval0 5.036387e+01 diffeval0 2.682677e-05 length_qM 6.763439e-03 thresh 1.000000e-08
round 6 sizeofsub 10 eval0 5.036387e+01 diffeval0 2.126569e-06 length_qM 1.263515e-03 thresh 1.000000e-08
round 7 sizeofsub 11 eval0 5.036387e+01 diffeval0 5.895025e-09 length_qM 8.326038e-06 thresh 1.000000e-08
round 8 sizeofsub 12 eval0 5.036387e+01 diffeval0 5.331202e-11 length_qM 2.958165e-05 thresh 1.000000e-08
round 9 sizeofsub 13 eval0 5.036387e+01 diffeval0 2.056311e-11 length_qM 1.837495e-05 thresh 1.000000e-08
round 10 sizeofsub 14 eval0 5.036387e+01 diffeval0 2.472689e-12 length_qM 4.341107e-07 thresh 1.000000e-08
Converged to smallest eigenvalue: eval0 5.036387e+01

Success!!! No Negative Eigenvalues: Ending Get Boys in C++ ...Bye Bye
Orbital 12 Variance 2.76522209
Orbital 11 Variance 2.77100063
Orbital 4 Variance 2.77250556
Orbital 3 Variance 2.77526564
Orbital 6 Variance 2.77574518
Orbital 9 Variance 2.77583809
Orbital 7 Variance 2.77586924
Orbital 2 Variance 2.77587865
Orbital 8 Variance 2.77588184
Orbital 1 Variance 2.77595030
Orbital 5 Variance 2.77604884
Orbital 10 Variance 2.77688703
EXECUTING ORTHO_FUNC DESTRUCTOR

 Dimensions of orbital sub-spaces:    
 Number Hole Orbs:Alpha:Beta:       2    2    2
 Number Active Orbs:Alpha:Beta:    12   11    1
 Number Part Orbs:Alpha:Beta:      14    0    0

 Dimensions in SF-RAS-hp calculation: 
 Number of active space determinants:  144
 Number of hole space determinants:    1608
 Number of part space determinants:    11256
 Number of hole-part determinants:     130060
 Total 1x space:                       13008
 Total singles space:                  143068
 REM_MEM_TOT: 2000
 Memory Used: 0
 Memory Left: 2000
 Memory Need: 2
 Constructing 1e MO integrals
 Form (P|Q)**(-1/2)...
 Job number = 66, Threshold = 1.00E-12
Integral type ranges set in mkLRange.C for JobNum: 66  <2-7|2-7>
Symmetry turned off temporarily
Storing 12080.14% of integrals
Total number of integrals generated =           19965
Symmetry turned back on
 Forming (pq|P)...
 Forming Active-Active (aa|P) integrals...

 Entering first-index batching code with I1Strt =    3 batch size =   12
 Job number = 65, Threshold = 1.00E-12
Integral type ranges set in mkLRange.C for JobNum: 65  <1-1|2-7>
Symmetry turned off temporarily
Storing 12080.14% of integrals
Total number of integrals generated =           34254
Symmetry turned back on
 Forming Active-Active B integrals...
 Contracting B matrices to form 2e integrals. 
 Forming 2J-K over o,v with exact integrals
 Calling AOints... Job number = 22, Threshold = 1.00E-12
Integral type ranges set in mkLRange.C for JobNum: 22  <1-1|1-1>
Storing 12080.14% of integrals
Total number of integrals generated =           14360
 done.

 ROHF energy found on disk: 
 E(ROHF):         -11.47223323
-11.47223323
 First 10 Diagonal elements of H: 
 11111111111_ | 1___________        -11.07929065
 11111111111_ | _1__________        -10.82138682
 11111111111_ | __1_________        -10.93170212
 11111111111_ | ___1________        -10.99241950
 11111111111_ | ____1_______        -11.07922412
 11111111111_ | _____1______        -11.07931299
 11111111111_ | ______1_____        -10.82129331
 11111111111_ | _______1____        -10.82182275
 11111111111_ | ________1___        -10.82180288
 11111111111_ | _________1__        -10.97400989
 Fill S2_CAS Matrix...  done.
 Fill H_CAS Matrix...  done.

 Diagonalizing H_CAS 
 Entering cast_sfcas_to_sfcis
 ===================================================================
 Theory           State:          Energy (au)       (eV)       <S2>
 -------------------------------------------------------------------
 SF-CAS               1:       -11.5303569922     0.0000    30.0000
 SF-CAS               2:       -11.5289127870     0.0393    30.0000
 SF-CAS               3:       -11.5285639483     0.0488    30.0000
 SF-CAS               4:       -11.5285384032     0.0495    30.0000
 SF-CAS               5:       -11.5284849933     0.0509    30.0000
 SF-CAS               6:       -11.5284271582     0.0525    30.0000
 SF-CAS               7:       -11.5284251145     0.0526    30.0000
 SF-CAS               8:       -11.5284043296     0.0531    30.0000
 SF-CAS               9:       -11.5283774603     0.0539    30.0000
 SF-CAS              10:       -11.4733270988     1.5519    30.0000
 SF-CAS              11:       -11.4722332326     1.5816    34.3611
 SF-CAS              12:       -11.4722332326     1.5816    37.6389
 SF-CAS              13:       -11.2094741659     8.7318    30.0000
 SF-CAS              14:       -11.2037074401     8.8887    30.0000
 SF-CAS              15:       -11.2033432355     8.8986    30.0000
 SF-CAS              16:       -11.2032486311     8.9012    30.0000
 SF-CAS              17:       -11.2022515724     8.9283    30.0000
 SF-CAS              18:       -11.2020878867     8.9327    30.0000
 SF-CAS              19:       -11.2015387944     8.9477    30.0000
 SF-CAS              20:       -11.2015214194     8.9482    30.0000
 SF-CAS              21:       -11.2015168094     8.9483    30.0000
 SF-CAS              22:       -11.1823824076     9.4690    30.0000
 SF-CAS              23:       -11.1727754838     9.7304    30.0000
 SF-CAS              24:       -11.1654702133     9.9292    30.0000
 SF-CAS              25:       -11.1459517816    10.4603    30.0000
 SF-CAS              26:       -11.1446767754    10.4950    30.0000
 SF-CAS              27:       -11.1427372905    10.5478    30.0000
 SF-CAS              28:       -11.0879617450    12.0383    30.0000
 SF-CAS              29:       -11.0864259269    12.0801    30.0000
 SF-CAS              30:       -11.0861195792    12.0884    30.0000
 SF-CAS              31:       -11.0860744965    12.0897    30.0000
 SF-CAS              32:       -11.0858887477    12.0947    30.0000
 SF-CAS              33:       -11.0857822720    12.0976    30.0000
 SF-CAS              34:       -11.0836030521    12.1569    30.0000
 SF-CAS              35:       -11.0834936262    12.1599    30.0000
 SF-CAS              36:       -11.0818351299    12.2050    30.0000
 SF-CAS              37:       -11.0818182789    12.2055    30.0000
 SF-CAS              38:       -11.0818051032    12.2058    30.0000
 SF-CAS              39:       -11.0817777356    12.2066    30.0000
 SF-CAS              40:       -11.0815611807    12.2125    30.0000
 SF-CAS              41:       -11.0797947378    12.2605    30.0000
 SF-CAS              42:       -11.0797181898    12.2626    30.0000
 SF-CAS              43:       -11.0796353306    12.2649    30.0000
 SF-CAS              44:       -11.0791426486    12.2783    30.0000
 SF-CAS              45:       -11.0774810858    12.3235    30.0000
 SF-CAS              46:       -11.0620437874    12.7436    30.0000
 SF-CAS              47:       -11.0534946388    12.9762    30.0000
 SF-CAS              48:       -11.0533951758    12.9789    30.0000
 SF-CAS              49:       -11.0529560942    12.9909    30.0000
 SF-CAS              50:       -11.0485016306    13.1121    30.0000
 SF-CAS              51:       -11.0482479352    13.1190    30.0000
 SF-CAS              52:       -11.0460856286    13.1778    30.0000
 SF-CAS              53:       -11.0453701381    13.1973    30.0000
 SF-CAS              54:       -11.0407885725    13.3220    30.0000
 SF-CAS              55:       -11.0406899140    13.3246    30.0000
 SF-CAS              56:       -11.0402516979    13.3366    30.0000
 SF-CAS              57:       -11.0321146896    13.5580    30.0000
 SF-CAS              58:       -10.9865304445    14.7984    30.0000
 SF-CAS              59:       -10.9793839795    14.9929    30.0000
 SF-CAS              60:       -10.9762493077    15.0782    30.0000
 SF-CAS              61:       -10.9693657675    15.2655    30.0000
 SF-CAS              62:       -10.9495158194    15.8056    30.0000
 SF-CAS              63:       -10.9475358825    15.8595    30.0000
 SF-CAS              64:       -10.9397399819    16.0717    30.0000
 SF-CAS              65:       -10.9382000945    16.1136    30.0000
 SF-CAS              66:       -10.9374165202    16.1349    30.0000
 SF-CAS              67:       -10.9355880262    16.1846    30.0000
 SF-CAS              68:       -10.9343558713    16.2182    30.0000
 SF-CAS              69:       -10.9327457697    16.2620    30.0000
 SF-CAS              70:       -10.9309452602    16.3110    30.0000
 SF-CAS              71:       -10.9283376000    16.3819    30.0000
 SF-CAS              72:       -10.9189285578    16.6380    30.0000
 SF-CAS              73:       -10.9172495505    16.6837    30.0000
 SF-CAS              74:       -10.9156118466    16.7282    30.0000
 SF-CAS              75:       -10.9122728353    16.8191    30.0000
 SF-CAS              76:       -10.9114518610    16.8414    30.0000
 SF-CAS              77:       -10.9099746344    16.8816    30.0000
 SF-CAS              78:       -10.8891656836    17.4479    30.0000
 SF-CAS              79:       -10.8891455545    17.4484    30.0000
 SF-CAS              80:       -10.8889838762    17.4528    30.0000
 SF-CAS              81:       -10.8871781571    17.5020    30.0000
 SF-CAS              82:       -10.8869836307    17.5073    30.0000
 SF-CAS              83:       -10.8867392827    17.5139    30.0000
 SF-CAS              84:       -10.8867096295    17.5147    30.0000
 SF-CAS              85:       -10.8835878940    17.5997    30.0000
 SF-CAS              86:       -10.8768683246    17.7825    30.0000
 SF-CAS              87:       -10.8520346651    18.4583    30.0000
 SF-CAS              88:       -10.8519313095    18.4611    30.0000
 SF-CAS              89:       -10.8514907313    18.4731    30.0000
 SF-CAS              90:       -10.8478016989    18.5735    30.0000
 SF-CAS              91:       -10.8474476823    18.5831    30.0000
 SF-CAS              92:       -10.8473346122    18.5862    30.0000
 SF-CAS              93:       -10.8345249392    18.9347    30.0000
 SF-CAS              94:       -10.8344232735    18.9375    30.0000
 SF-CAS              95:       -10.8342661327    18.9418    30.0000
 SF-CAS              96:       -10.8340403337    18.9479    30.0000
 SF-CAS              97:       -10.8340069710    18.9488    30.0000
 SF-CAS              98:       -10.8339903568    18.9493    30.0000
 SF-CAS              99:       -10.8339472325    18.9505    30.0000
 SF-CAS             100:       -10.8339044052    18.9516    30.0000
 SF-CAS             101:       -10.8337875397    18.9548    30.0000
 SF-CAS             102:       -10.8336527812    18.9585    30.0000
 SF-CAS             103:       -10.8335363787    18.9616    30.0000
 SF-CAS             104:       -10.8335033500    18.9625    30.0000
 SF-CAS             105:       -10.8318385669    19.0078    30.0000
 SF-CAS             106:       -10.8314783441    19.0176    30.0000
 SF-CAS             107:       -10.8313925742    19.0200    30.0000
 SF-CAS             108:       -10.8311157437    19.0275    30.0000
 SF-CAS             109:       -10.8308617625    19.0344    30.0000
 SF-CAS             110:       -10.8307687684    19.0369    30.0000
 SF-CAS             111:       -10.8307664218    19.0370    30.0000
 SF-CAS             112:       -10.8306808731    19.0393    30.0000
 SF-CAS             113:       -10.8303237169    19.0491    30.0000
 SF-CAS             114:       -10.8295999478    19.0688    30.0000
 SF-CAS             115:       -10.8294989011    19.0715    30.0000
 SF-CAS             116:       -10.8290687408    19.0832    30.0000
 SF-CAS             117:       -10.8178716872    19.3879    30.0000
 SF-CAS             118:       -10.8175174023    19.3975    30.0000
 SF-CAS             119:       -10.8174077781    19.4005    30.0000
 SF-CAS             120:       -10.8084709539    19.6437    30.0000
 SF-CAS             121:       -10.8083680624    19.6465    30.0000
 SF-CAS             122:       -10.8079287342    19.6585    30.0000
 SF-CAS             123:       -10.8044890133    19.7521    30.0000
 SF-CAS             124:       -10.8029129384    19.7950    30.0000
 SF-CAS             125:       -10.7927330008    20.0720    30.0000
 SF-CAS             126:       -10.7917838202    20.0978    30.0000
 SF-CAS             127:       -10.7145550951    22.1993    30.0000
 SF-CAS             128:       -10.6996645880    22.6045    30.0000
 SF-CAS             129:       -10.6935058257    22.7721    30.0000
 SF-CAS             130:       -10.6802135845    23.1338    30.0000
 SF-CAS             131:       -10.6789127647    23.1692    30.0000
 SF-CAS             132:       -10.6720987858    23.3546    30.0000
 SF-CAS             133:       -10.6030260228    25.2342    30.0000
 SF-CAS             134:       -10.5886704824    25.6248    30.0000
 SF-CAS             135:       -10.5883147228    25.6345    30.0000
 SF-CAS             136:       -10.5882066382    25.6375    30.0000
 SF-CAS             137:       -10.5855199586    25.7106    30.0000
 SF-CAS             138:       -10.5850374636    25.7237    30.0000
 SF-CAS             139:       -10.5818586630    25.8102    30.0000
 SF-CAS             140:       -10.5805964266    25.8446    30.0000
 SF-CAS             141:       -10.5784879004    25.9019    30.0000
 SF-CAS             142:       -10.5781324723    25.9116    30.0000
 SF-CAS             143:       -10.5780316169    25.9143    30.0000
 SF-CAS             144:       -10.5594631040    26.4196    30.0000
 ===================================================================

              Active Space Coefficients > 0.20
 -------------------------------------------------------------------
 State  1                       Configuration         Coeff.   <S^2>
 -------------------------------------------------------------------
                  11111111111_ | ___________1      -0.654288  31.000
                  1111111111_1 | __________1_      -0.291597  31.000
                  11111_111111 | _____1______       0.207862  31.000
                  111_11111111 | ___1________       0.207685  31.000
                  11_111111111 | __1_________       0.367880  31.000
                  _11111111111 | 1___________      -0.219145  31.000
 -------------------------------------------------------------------
 State  2                       Configuration         Coeff.   <S^2>
 -------------------------------------------------------------------
                  11111111111_ | ___________1      -0.410413  31.000
                  1111111111_1 | __________1_       0.236311  31.000
                  111_11111111 | ___1________      -0.259876  31.000
                  11_111111111 | __1_________      -0.675538  31.000
 -------------------------------------------------------------------
 State  3                       Configuration         Coeff.   <S^2>
 -------------------------------------------------------------------
                  1111111111_1 | __________1_       0.642000  31.000
                  111_11111111 | ___1________       0.646426  31.000
 -------------------------------------------------------------------
 State  4                       Configuration         Coeff.   <S^2>
 -------------------------------------------------------------------
                  11111111_111 | ________1___      -0.652645  31.000
                  1111111_1111 | _______1____       0.202664  31.000
                  111111_11111 | ______1_____       0.473495  31.000
                  1_1111111111 | _1__________      -0.381814  31.000
 -------------------------------------------------------------------
 State  5                       Configuration         Coeff.   <S^2>
 -------------------------------------------------------------------
                  11111_111111 | _____1______      -0.716549  31.000
                  1111_1111111 | ____1_______      -0.273488  31.000
                  _11111111111 | 1___________      -0.469288  31.000
 -------------------------------------------------------------------
 State  6                       Configuration         Coeff.   <S^2>
 -------------------------------------------------------------------
                  1111111111_1 | __________1_       0.275905  31.000
                  111111111_11 | _________1__       0.740756  31.000
                  11111_111111 | _____1______       0.213906  31.000
                  111_11111111 | ___1________      -0.299361  31.000
 -------------------------------------------------------------------
 State  7                       Configuration         Coeff.   <S^2>
 -------------------------------------------------------------------
                  11111111_111 | ________1___       0.437151  31.000
                  1111111_1111 | _______1____       0.761356  31.000
                  1_1111111111 | _1__________      -0.245597  31.000
 -------------------------------------------------------------------
 State  8                       Configuration         Coeff.   <S^2>
 -------------------------------------------------------------------
                  111111_11111 | ______1_____       0.630492  31.000
                  1_1111111111 | _1__________       0.649478  31.000
 -------------------------------------------------------------------
 State  9                       Configuration         Coeff.   <S^2>
 -------------------------------------------------------------------
                  1111_1111111 | ____1_______       0.694912  31.000
                  _11111111111 | 1___________      -0.568823  31.000
 -------------------------------------------------------------------
 State  10                      Configuration         Coeff.   <S^2>
 -------------------------------------------------------------------
                  11111111111_ | ___________1      -0.336466  31.000
                  1111111111_1 | __________1_      -0.345169  31.000
                  111111111_11 | _________1__       0.356658  31.000
                  11111_111111 | _____1______      -0.358241  31.000
                  1111_1111111 | ____1_______       0.358189  31.000
                  111_11111111 | ___1________       0.347508  31.000
                  11_111111111 | __1_________      -0.361754  31.000
                  _11111111111 | 1___________       0.358193  31.000
 -------------------------------------------------------------------
 State  11                      Configuration         Coeff.   <S^2>
 -------------------------------------------------------------------
                  11111111_111 | ________1___      -0.499751  31.000
                  1111111_1111 | _______1____       0.499751  31.000
                  111111_11111 | ______1_____      -0.499751  31.000
                  1_1111111111 | _1__________       0.499751  31.000
 -------------------------------------------------------------------
 State  12                      Configuration         Coeff.   <S^2>
 -------------------------------------------------------------------
                  11111111111_ | ___________1      -0.353377  31.000
                  1111111111_1 | __________1_       0.353377  31.000
                  111111111_11 | _________1__      -0.353377  31.000
                  11111_111111 | _____1______      -0.353377  31.000
                  1111_1111111 | ____1_______       0.353377  31.000
                  111_11111111 | ___1________      -0.353377  31.000
                  11_111111111 | __1_________       0.353377  31.000
                  _11111111111 | 1___________       0.353377  31.000
 -------------------------------------------------------------------
 State  13                      Configuration         Coeff.   <S^2>
 -------------------------------------------------------------------
                  11111111111_ | 1___________      -0.302786  30.000
                  11111111111_ | ___1________       0.247432  30.000
                  11111111111_ | ____1_______       0.302398  30.000
                  11111111111_ | _____1______      -0.302621  30.000
                  11111111111_ | _________1__      -0.227132  30.000
                  11111111111_ | __________1_       0.248832  30.000
                  11_111111111 | ___1________      -0.209845  30.000
                  11_111111111 | _________1__       0.246934  30.000
                  11_111111111 | __________1_      -0.200378  30.000
 -------------------------------------------------------------------
 State  14                      Configuration         Coeff.   <S^2>
 -------------------------------------------------------------------
                  11111111111_ | 1___________       0.248543  30.000
                  11111111111_ | ____1_______      -0.258811  30.000
                  11111111111_ | _____1______       0.275144  30.000
                  11_111111111 | __1_________       0.226947  31.000
                  11_111111111 | ___1________      -0.346590  30.000
                  11_111111111 | _________1__       0.337570  30.000
                  11_111111111 | __________1_      -0.345099  30.000
 -------------------------------------------------------------------
 State  15                      Configuration         Coeff.   <S^2>
 -------------------------------------------------------------------
                  1111_1111111 | 1___________       0.263672  30.000
                  1111_1111111 | ____1_______       0.237811  31.000
                  1111_1111111 | _____1______       0.395845  30.000
                  1111_1111111 | ___________1       0.410109  30.000
                  _11111111111 | 1___________      -0.237449  31.000
                  _11111111111 | ____1_______      -0.262801  30.000
                  _11111111111 | _____1______       0.388138  30.000
                  _11111111111 | ___________1       0.417631  30.000
 -------------------------------------------------------------------
 State  16                      Configuration         Coeff.   <S^2>
 -------------------------------------------------------------------
                  11111_111111 | 1___________      -0.393060  30.000
                  11111_111111 | ____1_______       0.387852  30.000
                  11111_111111 | _____1______       0.279397  31.000
                  11111_111111 | ___________1      -0.473943  30.000
                  1111_1111111 | 1___________       0.286833  30.000
                  1111_1111111 | ___________1       0.245795  30.000
                  _11111111111 | ____1_______       0.276581  30.000
                  _11111111111 | ___________1      -0.229638  30.000
 -------------------------------------------------------------------
 State  17                      Configuration         Coeff.   <S^2>
 -------------------------------------------------------------------
                  1111111111_1 | __1_________      -0.437885  30.000
                  1111111111_1 | ___1________      -0.382570  30.000
                  1111111111_1 | _________1__       0.312329  30.000
                  1111111111_1 | __________1_       0.251187  31.000
                  111111111_11 | __1_________       0.318027  30.000
                  111111111_11 | ___1________       0.385323  30.000
                  111111111_11 | _________1__       0.203750  31.000
                  111111111_11 | __________1_       0.205825  30.000
                  111_11111111 | _________1__       0.242504  30.000
 -------------------------------------------------------------------
 State  18                      Configuration         Coeff.   <S^2>
 -------------------------------------------------------------------
                  1111111111_1 | _________1__      -0.254039  30.000
                  111111111_11 | __1_________       0.304582  30.000
                  111111111_11 | __________1_       0.370697  30.000
                  111_11111111 | __1_________       0.448065  30.000
                  111_11111111 | ___1________      -0.262708  31.000
                  111_11111111 | _________1__      -0.337856  30.000
                  111_11111111 | __________1_       0.396068  30.000
 -------------------------------------------------------------------
 State  19                      Configuration         Coeff.   <S^2>
 -------------------------------------------------------------------
                  11111111_111 | _______1____       0.324870  30.000
                  1111111_1111 | _1__________       0.256668  30.000
                  1111111_1111 | ______1_____       0.272368  30.000
                  1111111_1111 | _______1____      -0.211884  31.000
                  1111111_1111 | ________1___      -0.425750  30.000
                  111111_11111 | _1__________       0.359197  30.000
                  1_1111111111 | ______1_____      -0.391117  30.000
                  1_1111111111 | ________1___       0.237999  30.000
 -------------------------------------------------------------------
 State  20                      Configuration         Coeff.   <S^2>
 -------------------------------------------------------------------
                  11111111_111 | _1__________       0.224134  30.000
                  111111_11111 | _1__________       0.303272  30.000
                  111111_11111 | ______1_____      -0.251797  31.000
                  111111_11111 | _______1____       0.440594  30.000
                  111111_11111 | ________1___      -0.391358  30.000
                  1_1111111111 | _1__________      -0.220115  31.000
                  1_1111111111 | ______1_____       0.232344  30.000
                  1_1111111111 | _______1____       0.355423  30.000
                  1_1111111111 | ________1___      -0.404909  30.000
 -------------------------------------------------------------------
 State  21                      Configuration         Coeff.   <S^2>
 -------------------------------------------------------------------
                  11111111_111 | _1__________       0.399016  30.000
                  11111111_111 | ______1_____       0.452064  30.000
                  11111111_111 | _______1____       0.328986  30.000
                  11111111_111 | ________1___       0.261857  31.000
                  1111111_1111 | _1__________      -0.386437  30.000
                  1111111_1111 | ______1_____      -0.333556  30.000
                  1111111_1111 | _______1____       0.203833  31.000
                  1_1111111111 | _______1____      -0.242612  30.000
 -------------------------------------------------------------------
 State  22                      Configuration         Coeff.   <S^2>
 -------------------------------------------------------------------
                  11111111111_ | __1_________      -0.332496  30.000
                  11111111111_ | ___1________      -0.412264  30.000
                  11111111111_ | _________1__       0.383126  30.000
                  11111111111_ | __________1_      -0.419078  30.000
 -------------------------------------------------------------------
 State  23                      Configuration         Coeff.   <S^2>
 -------------------------------------------------------------------
                  1111111111_1 | 1___________      -0.325621  30.000
                  1111111111_1 | ____1_______       0.338866  30.000
                  1111111111_1 | _____1______      -0.326732  30.000
                  1111111111_1 | ___________1      -0.467077  30.000
                  111_11111111 | 1___________      -0.304267  30.000
                  111_11111111 | ____1_______       0.292112  30.000
                  111_11111111 | _____1______      -0.296565  30.000
                  111_11111111 | ___________1      -0.415671  30.000
 -------------------------------------------------------------------
 State  24                      Configuration         Coeff.   <S^2>
 -------------------------------------------------------------------
                  1111111111_1 | ___________1      -0.246796  30.000
                  111111111_11 | 1___________       0.331261  30.000
                  111111111_11 | ____1_______      -0.333732  30.000
                  111111111_11 | _____1______       0.349630  30.000
                  111111111_11 | ___________1       0.450949  30.000
                  111_11111111 | 1___________       0.229924  30.000
                  111_11111111 | ____1_______      -0.217420  30.000
                  111_11111111 | _____1______       0.225430  30.000
                  111_11111111 | ___________1       0.314336  30.000
 -------------------------------------------------------------------
 State  25                      Configuration         Coeff.   <S^2>
 -------------------------------------------------------------------
                  11111_111111 | __1_________      -0.341568  30.000
                  11111_111111 | ___1________      -0.402812  30.000
                  11111_111111 | _________1__       0.401959  30.000
                  11111_111111 | __________1_      -0.402588  30.000
                  1111_1111111 | ___1________       0.227746  30.000
                  1111_1111111 | _________1__      -0.225617  30.000
                  1111_1111111 | __________1_       0.242915  30.000
 -------------------------------------------------------------------
 State  26                      Configuration         Coeff.   <S^2>
 -------------------------------------------------------------------
                  1111_1111111 | __1_________      -0.280660  30.000
                  1111_1111111 | ___1________      -0.326974  30.000
                  1111_1111111 | _________1__       0.314347  30.000
                  1111_1111111 | __________1_      -0.344770  30.000
                  _11111111111 | __1_________      -0.311984  30.000
                  _11111111111 | ___1________      -0.378994  30.000
                  _11111111111 | _________1__       0.347785  30.000
                  _11111111111 | __________1_      -0.368329  30.000
 -------------------------------------------------------------------
 State  27                      Configuration         Coeff.   <S^2>
 -------------------------------------------------------------------
                  111111111_11 | _____1______       0.210935  30.000
                  111111111_11 | ___________1       0.248018  30.000
                  11_111111111 | 1___________      -0.378993  30.000
                  11_111111111 | ____1_______       0.379428  30.000
                  11_111111111 | _____1______      -0.381597  30.000
                  11_111111111 | ___________1      -0.450136  30.000
 -------------------------------------------------------------------
 State  28                      Configuration         Coeff.   <S^2>
 -------------------------------------------------------------------
                  1111111111_1 | ___1________      -0.390630  30.000
                  1111111111_1 | _________1__      -0.255283  30.000
                  111111111_11 | __1_________      -0.329178  30.000
                  111111111_11 | __________1_       0.202274  30.000
                  111_11111111 | __1_________      -0.200286  30.000
                  111_11111111 | _________1__       0.218784  30.000
                  111_11111111 | __________1_       0.362759  30.000
                  11_111111111 | ___1________       0.254214  30.000
                  11_111111111 | _________1__       0.407881  30.000
                  11_111111111 | __________1_       0.212249  30.000
 -------------------------------------------------------------------
 State  29                      Configuration         Coeff.   <S^2>
 -------------------------------------------------------------------
                  1111111111_1 | __1_________      -0.332408  30.000
                  1111111111_1 | _________1__      -0.343844  30.000
                  111111111_11 | ___1________      -0.328792  30.000
                  111111111_11 | __________1_       0.297682  30.000
                  111_11111111 | __1_________      -0.300601  30.000
                  111_11111111 | _________1__      -0.352865  30.000
                  11_111111111 | ___1________       0.333403  30.000
                  11_111111111 | __________1_      -0.342876  30.000
 -------------------------------------------------------------------
 State  30                      Configuration         Coeff.   <S^2>
 -------------------------------------------------------------------
                  11111111_111 | _1__________       0.349667  30.000
                  11111111_111 | ______1_____      -0.367488  30.000
                  1111111_1111 | _1__________      -0.363615  30.000
                  1111111_1111 | ______1_____       0.344324  30.000
                  111111_11111 | _______1____      -0.343651  30.000
                  111111_11111 | ________1___      -0.357166  30.000
                  1_1111111111 | _______1____      -0.361566  30.000
                  1_1111111111 | ________1___      -0.337982  30.000
 -------------------------------------------------------------------
 State  31                      Configuration         Coeff.   <S^2>
 -------------------------------------------------------------------
                  11111111_111 | _1__________       0.226930  30.000
                  11111111_111 | _______1____      -0.414039  30.000
                  1111111_1111 | ______1_____       0.216576  30.000
                  1111111_1111 | ________1___       0.397001  30.000
                  111111_11111 | _1__________       0.407700  30.000
                  111111_11111 | _______1____      -0.226690  30.000
                  1_1111111111 | ______1_____      -0.403649  30.000
                  1_1111111111 | ________1___      -0.216143  30.000
 -------------------------------------------------------------------
 State  32                      Configuration         Coeff.   <S^2>
 -------------------------------------------------------------------
                  11111111111_ | 1___________      -0.354774  30.000
                  11111111111_ | ____1_______      -0.511075  30.000
                  11111_111111 | 1___________       0.361456  30.000
                  11111_111111 | ____1_______       0.309069  30.000
                  _11111111111 | _____1______      -0.322701  30.000
 -------------------------------------------------------------------
 State  33                      Configuration         Coeff.   <S^2>
 -------------------------------------------------------------------
                  11111111111_ | 1___________      -0.403214  30.000
                  11111111111_ | _____1______       0.526475  30.000
                  11111_111111 | ____1_______       0.207245  30.000
                  1111_1111111 | 1___________       0.373121  30.000
                  1111_1111111 | _____1______      -0.343125  30.000
                  _11111111111 | ____1_______       0.329188  30.000
                  _11111111111 | _____1______       0.202750  30.000
 -------------------------------------------------------------------
 State  34                      Configuration         Coeff.   <S^2>
 -------------------------------------------------------------------
                  1111111111_1 | __1_________       0.356972  30.000
                  1111111111_1 | ___1________      -0.403568  30.000
                  111_11111111 | __1_________       0.411551  30.000
                  111_11111111 | __________1_      -0.426647  30.000
                  11_111111111 | ___1________       0.391010  30.000
                  11_111111111 | __________1_      -0.363055  30.000
 -------------------------------------------------------------------
 State  35                      Configuration         Coeff.   <S^2>
 -------------------------------------------------------------------
                  1111111111_1 | __1_________       0.295032  30.000
                  1111111111_1 | _________1__       0.227847  30.000
                  111111111_11 | __1_________      -0.497068  30.000
                  111111111_11 | ___1________       0.236736  30.000
                  111111111_11 | __________1_       0.287040  30.000
                  111_11111111 | __1_________      -0.237013  30.000
                  111_11111111 | _________1__      -0.222853  30.000
                  11_111111111 | _________1__      -0.468394  30.000
                  11_111111111 | __________1_      -0.274098  30.000
 -------------------------------------------------------------------
 State  36                      Configuration         Coeff.   <S^2>
 -------------------------------------------------------------------
                  11111111_111 | _1__________      -0.371961  30.000
                  11111111_111 | ______1_____       0.457349  30.000
                  1111111_1111 | ______1_____      -0.255666  30.000
                  111111_11111 | _1__________      -0.202608  30.000
                  111111_11111 | _______1____      -0.262854  30.000
                  111111_11111 | ________1___      -0.466149  30.000
                  1_1111111111 | ______1_____      -0.201540  30.000
                  1_1111111111 | ________1___      -0.379675  30.000
 -------------------------------------------------------------------
 State  37                      Configuration         Coeff.   <S^2>
 -------------------------------------------------------------------
                  11111_111111 | 1___________      -0.406834  30.000
                  11111_111111 | ____1_______      -0.406165  30.000
                  1111_1111111 | 1___________       0.399756  30.000
                  1111_1111111 | _____1______      -0.419287  30.000
                  _11111111111 | ____1_______      -0.389361  30.000
                  _11111111111 | _____1______      -0.409315  30.000
 -------------------------------------------------------------------
 State  38                      Configuration         Coeff.   <S^2>
 -------------------------------------------------------------------
                  11111111_111 | _1__________       0.315162  30.000
                  11111111_111 | _______1____      -0.485274  30.000
                  1111111_1111 | _1__________      -0.283285  30.000
                  1111111_1111 | ______1_____      -0.216968  30.000
                  1111111_1111 | ________1___      -0.498955  30.000
                  111111_11111 | _______1____      -0.206678  30.000
                  1_1111111111 | _______1____       0.278802  30.000
                  1_1111111111 | ________1___       0.324913  30.000
 -------------------------------------------------------------------
 State  39                      Configuration         Coeff.   <S^2>
 -------------------------------------------------------------------
                  1111111_1111 | _1__________      -0.376704  30.000
                  1111111_1111 | ______1_____       0.373877  30.000
                  111111_11111 | _1__________      -0.453945  30.000
                  111111_11111 | _______1____       0.369212  30.000
                  1_1111111111 | ______1_____      -0.456489  30.000
                  1_1111111111 | _______1____       0.374655  30.000
 -------------------------------------------------------------------
 State  40                      Configuration         Coeff.   <S^2>
 -------------------------------------------------------------------
                  1111111111_1 | ___1________       0.253240  30.000
                  1111111111_1 | _________1__       0.402431  30.000
                  111111111_11 | ___1________      -0.450046  30.000
                  111111111_11 | __________1_       0.432697  30.000
                  111_11111111 | _________1__       0.426091  30.000
                  111_11111111 | __________1_       0.256604  30.000
 -------------------------------------------------------------------
 State  41                      Configuration         Coeff.   <S^2>
 -------------------------------------------------------------------
                  11111111111_ | _____1______      -0.349818  30.000
                  1111111111_1 | ___1________      -0.200051  30.000
                  11111_111111 | 1___________      -0.336976  30.000
                  11111_111111 | ____1_______       0.329241  30.000
                  11111_111111 | ___________1       0.223956  30.000
                  1111_1111111 | ___________1      -0.243531  30.000
                  _11111111111 | ___________1       0.438349  30.000
 -------------------------------------------------------------------
 State  42                      Configuration         Coeff.   <S^2>
 -------------------------------------------------------------------
                  11111111111_ | 1___________       0.327388  30.000
                  111111111_11 | __1_________       0.209171  30.000
                  11111_111111 | ___________1       0.535988  30.000
                  _11111111111 | ____1_______       0.308106  30.000
                  _11111111111 | _____1______      -0.311378  30.000
                  _11111111111 | ___________1       0.232732  30.000
 -------------------------------------------------------------------
 State  43                      Configuration         Coeff.   <S^2>
 -------------------------------------------------------------------
                  11111111111_ | ____1_______       0.326471  30.000
                  11111_111111 | ___________1      -0.234608  30.000
                  1111_1111111 | 1___________      -0.317914  30.000
                  1111_1111111 | _____1______      -0.276013  30.000
                  1111_1111111 | ___________1       0.566249  30.000
                  _11111111111 | ___________1       0.377313  30.000
 -------------------------------------------------------------------
 State  44                      Configuration         Coeff.   <S^2>
 -------------------------------------------------------------------
                  11111111_111 | _1__________       0.287443  30.000
                  11111111_111 | ______1_____       0.286969  30.000
                  11111111_111 | _______1____       0.291656  30.000
                  1111111_1111 | _1__________       0.286697  30.000
                  1111111_1111 | ______1_____       0.287251  30.000
                  1111111_1111 | ________1___      -0.292014  30.000
                  111111_11111 | _1__________      -0.291680  30.000
                  111111_11111 | _______1____      -0.287344  30.000
                  111111_11111 | ________1___       0.286973  30.000
                  1_1111111111 | ______1_____       0.291746  30.000
                  1_1111111111 | _______1____       0.286770  30.000
                  1_1111111111 | ________1___      -0.287458  30.000
 -------------------------------------------------------------------
 State  45                      Configuration         Coeff.   <S^2>
 -------------------------------------------------------------------
                  11111111111_ | 1___________       0.205973  30.000
                  11111111111_ | ____1_______      -0.205459  30.000
                  11111111111_ | _____1______       0.211069  30.000
                  1111111111_1 | __1_________      -0.211863  30.000
                  1111111111_1 | _________1__       0.211647  30.000
                  111111111_11 | ___1________      -0.211548  30.000
                  111111111_11 | __________1_      -0.207602  30.000
                  11111_111111 | ___________1       0.200430  30.000
                  1111_1111111 | ___________1       0.201093  30.000
                  111_11111111 | __1_________       0.208610  30.000
                  111_11111111 | _________1__      -0.214717  30.000
                  11_111111111 | ___1________      -0.210017  30.000
                  11_111111111 | __________1_      -0.214057  30.000
                  _11111111111 | ___________1      -0.200233  30.000
 -------------------------------------------------------------------
 State  46                      Configuration         Coeff.   <S^2>
 -------------------------------------------------------------------
                  11111111111_ | _1__________      -0.296132  30.000
                  11111111111_ | ______1_____      -0.296020  30.000
                  11111111111_ | _______1____      -0.296752  30.000
                  11111111111_ | ________1___       0.296848  30.000
                  11_111111111 | _1__________       0.276836  30.000
                  11_111111111 | ______1_____       0.276638  30.000
                  11_111111111 | _______1____       0.277401  30.000
                  11_111111111 | ________1___      -0.277521  30.000
 -------------------------------------------------------------------
 State  47                      Configuration         Coeff.   <S^2>
 -------------------------------------------------------------------
                  11111111_111 | 1___________      -0.286545  30.000
                  11111111_111 | __1_________      -0.291574  30.000
                  11111111_111 | ___1________      -0.316212  30.000
                  11111111_111 | ____1_______       0.287319  30.000
                  11111111_111 | _____1______      -0.288113  30.000
                  11111111_111 | _________1__       0.308768  30.000
                  11111111_111 | __________1_      -0.318446  30.000
                  11111111_111 | ___________1      -0.346184  30.000
 -------------------------------------------------------------------
 State  48                      Configuration         Coeff.   <S^2>
 -------------------------------------------------------------------
[...]
   697     3251.41976195    31103.75420188       19.99780603      cm-1
   698     3251.41976195    31103.75420188       12.00000000      cm-1
   699     3251.41976195    31103.75420188        6.00219397      cm-1
   700     3252.36013573    31104.69457566        6.00000000      cm-1
   701     3254.58267256    31106.91711249       11.99888651      cm-1
   702     3254.58267256    31106.91711249        6.00000000      cm-1
   703     3254.58267256    31106.91711249        2.00111349      cm-1
   704     3258.95511983    31111.28955976       19.99998429      cm-1
   705     3258.95511983    31111.28955976       12.00000000      cm-1
   706     3258.95511983    31111.28955976        6.00001571      cm-1
   707     3263.51688559    31115.85132552        6.00195962      cm-1
   708     3263.51688559    31115.85132552       12.00000000      cm-1
   709     3263.51688559    31115.85132552       19.99804038      cm-1
   710     3264.11309709    31116.44753702       19.99967667      cm-1
   711     3264.11309709    31116.44753702       12.00000000      cm-1
   712     3264.11309709    31116.44753702        6.00032333      cm-1
   713     3266.71087618    31119.04531611       19.99641789      cm-1
   714     3266.71087618    31119.04531611       11.98954678      cm-1
   715     3266.71087618    31119.04531611        5.96709338      cm-1
   716     3266.71087618    31119.04531611        2.00903824      cm-1
   717     3266.71087618    31119.04531611        0.03790371      cm-1
   718     3269.15914390    31121.49358383        6.00000000      cm-1
   719     3274.27175272    31126.60619265       11.99997480      cm-1
   720     3274.27175272    31126.60619265        6.00000000      cm-1
   721     3274.27175272    31126.60619265        2.00002520      cm-1
   722     3275.02052561    31127.35496554       19.99942847      cm-1
   723     3275.02052561    31127.35496554       12.00000000      cm-1
   724     3275.02052561    31127.35496554        6.00057153      cm-1
   725     3275.20782868    31127.54226861       19.99822159      cm-1
   726     3275.20782868    31127.54226861       11.99891985      cm-1
   727     3275.20782868    31127.54226861        6.00069176      cm-1
   728     3275.20782869    31127.54226861        2.00000615      cm-1
   729     3275.20782869    31127.54226861        0.00216065      cm-1
   730     3276.28374769    31128.61818762       19.99980678      cm-1
   731     3276.28374769    31128.61818762       12.00000000      cm-1
   732     3276.28374769    31128.61818762        6.00019322      cm-1
   733     3280.84551346    31133.17995338       11.99999999      cm-1
   734     3280.84551346    31133.17995338       12.00000000      cm-1
   735     3280.84551346    31133.17995338       14.00000001      cm-1
   736     3288.97708283    31141.31152276       19.99993138      cm-1
   737     3288.97708283    31141.31152276       12.00000000      cm-1
   738     3288.97708283    31141.31152276        6.00006862      cm-1
   739     3291.08991400    31143.42435393       19.99944974      cm-1
   740     3291.08991400    31143.42435393       11.99997724      cm-1
   741     3291.08991400    31143.42435393        5.99901786      cm-1
   742     3291.08991400    31143.42435393        2.00001771      cm-1
   743     3291.08991400    31143.42435393        0.00153744      cm-1
   744     3293.53884859    31145.87328852       12.00000000      cm-1
   745     3293.53884859    31145.87328852       11.99999586      cm-1
   746     3293.53884859    31145.87328852       14.00000414      cm-1
   747     3297.75146253    31150.08590245       19.99985885      cm-1
   748     3297.75146253    31150.08590245       11.99998325      cm-1
   749     3297.75146253    31150.08590245        5.99976173      cm-1
   750     3297.75146253    31150.08590245        2.00011620      cm-1
   751     3297.75146253    31150.08590245        0.00027997      cm-1
   752     3299.88451135    31152.21895128       19.99997870      cm-1
   753     3299.88451135    31152.21895128       12.00000000      cm-1
   754     3299.88451135    31152.21895128        6.00002130      cm-1
   755     3304.44627711    31156.78071704        6.00431282      cm-1
   756     3304.44627711    31156.78071704       12.00000000      cm-1
   757     3304.44627711    31156.78071704       19.99568718      cm-1
   758     8807.86827680    36660.20271673       -0.00000000      cm-1
   759     8852.97065411    36705.30509404       -0.00000000      cm-1
   760     8871.73444874    36724.06888867        2.00000000      cm-1
   761     8916.83682605    36769.17126598        2.00000000      cm-1
   762     8997.81187150    36850.14631143        6.00000000      cm-1
   763     9042.91424881    36895.24868873        6.00000000      cm-1
   764     9166.58225808    37018.91669801       19.96228677      cm-1
   765     9166.58225808    37018.91669801       11.99704150      cm-1
   766     9166.58225808    37018.91669801        5.97838199      cm-1
   767     9166.58225808    37018.91669801        2.00429269      cm-1
   768     9166.58225808    37018.91669801        0.05799705      cm-1
   769     9182.99367669    37035.32811662       12.00000000      cm-1
   770     9216.74620244    37069.08064237       19.99710099      cm-1
   771     9216.74620244    37069.08064237       11.99614687      cm-1
   772     9216.74620245    37069.08064237        5.98199963      cm-1
   773     9216.74620245    37069.08064237        2.00293965      cm-1
   774     9216.74620245    37069.08064237        0.02181285      cm-1
   775     9228.09605400    37080.43049393       12.00000000      cm-1
   776     9247.16573611    37099.50017603       19.99685468      cm-1
   777     9247.16573611    37099.50017603       11.99376275      cm-1
   778     9247.16573611    37099.50017603        5.96784462      cm-1
   779     9247.16573611    37099.50017603        2.00494692      cm-1
   780     9247.16573611    37099.50017603        0.03659103      cm-1
   781     9372.01317251    37224.34761243       19.98970380      cm-1
   782     9372.01317251    37224.34761243       12.00314966      cm-1
   783     9372.01317251    37224.34761243        5.99996602      cm-1
   784     9372.01317251    37224.34761243        2.00477404      cm-1
   785     9372.01317251    37224.34761243        0.00240648      cm-1
   786     9423.06955606    37275.40399598       20.00000000      cm-1
   787     9468.17193337    37320.50637329       20.00000000      cm-1
   788    14887.65522604    42739.98966597       11.99816450      cm-1
   789    14887.65522604    42739.98966597        6.00119411      cm-1
   790    14887.65522604    42739.98966597        2.00064139      cm-1
   791    14982.05283946    42834.38727939        2.00000000      cm-1
   792    15006.91682520    42859.25126513        2.00000000      cm-1
   793    15011.47859096    42863.81303089        2.00000000      cm-1
   794    15045.91901140    42898.25345133        5.99257657      cm-1
   795    15045.91901140    42898.25345133        2.00000000      cm-1
   796    15045.91901140    42898.25345133        0.00742343      cm-1
   797    15059.62212924    42911.95656916       11.98595054      cm-1
   798    15059.62212924    42911.95656916        6.00000000      cm-1
   799    15059.62212924    42911.95656916        2.01404946      cm-1
   800    15070.78299715    42923.11743707        5.99574649      cm-1
   801    15070.78299715    42923.11743707        2.00000000      cm-1
   802    15070.78299715    42923.11743707        0.00425351      cm-1
   803    15075.34476291    42927.67920284        0.02460647      cm-1
   804    15075.34476291    42927.67920284        2.00000000      cm-1
   805    15075.34476291    42927.67920284        5.97539353      cm-1
   806    15083.21720904    42935.55164897       11.99229814      cm-1
   807    15083.21720904    42935.55164897        6.00000000      cm-1
   808    15083.21720904    42935.55164897        2.00770186      cm-1
   809    15107.10038847    42959.43482839       19.99017506      cm-1
   810    15107.10038847    42959.43482839       11.96913439      cm-1
   811    15107.10038847    42959.43482839        5.98874292      cm-1
   812    15107.10038847    42959.43482839        2.02892188      cm-1
   813    15107.10038847    42959.43482839        0.02302576      cm-1
   814    15171.99643416    43024.33087408       11.99964547      cm-1
   815    15171.99643416    43024.33087409        6.00000000      cm-1
   816    15171.99643416    43024.33087409        2.00035453      cm-1
   817    15196.86041990    43049.19485983       11.99945124      cm-1
   818    15196.86041990    43049.19485983        6.00000000      cm-1
   819    15196.86041990    43049.19485983        2.00054876      cm-1
   820    15198.11997864    43050.45441857       29.91491724      cm-1
   821    15198.11997864    43050.45441857       20.05578456      cm-1
   822    15198.11997864    43050.45441857       12.00416467      cm-1
   823    15198.11997864    43050.45441857        6.01216220      cm-1
   824    15198.11997864    43050.45441857        2.01297133      cm-1
   825    15201.42218566    43053.75662559        2.02243963      cm-1
   826    15201.42218566    43053.75662559        6.00000000      cm-1
   827    15201.42218566    43053.75662559       11.97756037      cm-1
   828    15251.53833666    43103.87277658        7.99999998      cm-1
   829    15251.53833666    43103.87277658        6.00000000      cm-1
   830    15251.53833666    43103.87277658        6.00000002      cm-1
   831    15289.59152422    43141.92596415       19.90491261      cm-1
   832    15289.59152422    43141.92596415       12.07654295      cm-1
   833    15289.59152422    43141.92596415        5.95184732      cm-1
   834    15289.59152422    43141.92596415        2.00341304      cm-1
   835    15289.59152422    43141.92596415        0.06328408      cm-1
   836    15312.01735392    43164.35179384       19.98953383      cm-1
   837    15312.01735392    43164.35179384       11.99725267      cm-1
   838    15312.01735392    43164.35179384        6.00227788      cm-1
   839    15312.01735392    43164.35179384        2.00329538      cm-1
   840    15312.01735392    43164.35179384        0.00764025      cm-1
   841    15353.75931052    43206.09375045       19.92214844      cm-1
   842    15353.75931052    43206.09375045       12.07591557      cm-1
   843    15353.75931052    43206.09375045        5.98351863      cm-1
   844    15353.75931052    43206.09375045        2.00232820      cm-1
   845    15353.75931052    43206.09375045        0.01608915      cm-1
   846    15357.17823935    43209.51267928       19.99591169      cm-1
   847    15357.17823935    43209.51267928       12.00000000      cm-1
   848    15357.17823935    43209.51267928        6.00408831      cm-1
   849    15382.04222509    43234.37666502       19.99991247      cm-1
   850    15382.04222509    43234.37666502       12.00000000      cm-1
   851    15382.04222509    43234.37666502        6.00008753      cm-1
   852    15386.60399085    43238.93843078        6.09550974      cm-1
   853    15386.60399085    43238.93843078       12.00000000      cm-1
   854    15386.60399085    43238.93843078       19.90449026      cm-1
   855    15463.47988632    43315.81432625       19.95599218      cm-1
   856    15463.47988632    43315.81432625       11.75000097      cm-1
   857    15463.47988632    43315.81432625        4.96723589      cm-1
   858    15463.47988632    43315.81432625        2.23796979      cm-1
   859    15463.47988632    43315.81432625        1.08880116      cm-1
   860    15492.91464552    43345.24908544       11.98732652      cm-1
   861    15492.91464552    43345.24908544        6.00000000      cm-1
   862    15492.91464552    43345.24908544        2.01267348      cm-1
   863    15515.08636743    43367.42080736       29.98340614      cm-1
   864    15515.08636743    43367.42080736       19.97105113      cm-1
   865    15515.08636743    43367.42080736       12.00360465      cm-1
   866    15515.08636743    43367.42080736        6.03034831      cm-1
   867    15515.08636743    43367.42080736        2.01158977      cm-1
   868    15560.27754570    43412.61198563       11.99687412      cm-1
   869    15560.27754570    43412.61198563        6.00000000      cm-1
   870    15560.27754570    43412.61198563        2.00312588      cm-1
   871    15573.09335723    43425.42779715       19.68624831      cm-1
   872    15573.09335723    43425.42779715       11.07684233      cm-1
   873    15573.09335723    43425.42779715        4.56256030      cm-1
   874    15573.09335723    43425.42779715        2.25925067      cm-1
   875    15573.09335723    43425.42779715        2.41509840      cm-1
   876    15591.64761934    43443.98205927       29.97173137      cm-1
   877    15591.64761934    43443.98205927       19.99862401      cm-1
   878    15591.64761934    43443.98205927       11.99715814      cm-1
   879    15591.64761934    43443.98205927        6.02892196      cm-1
   880    15591.64761934    43443.98205927        2.00356452      cm-1
   881    15597.25411872    43449.58855864       29.98816285      cm-1
   882    15597.25411872    43449.58855864       20.00000000      cm-1
   883    15597.25411872    43449.58855864       12.01183715      cm-1
   884    15608.97624721    43461.31068713       29.90750116      cm-1
   885    15608.97624721    43461.31068713       20.03019220      cm-1
   886    15608.97624721    43461.31068713       12.00847617      cm-1
   887    15608.97624721    43461.31068713        6.02862253      cm-1
   888    15608.97624721    43461.31068713        2.02520795      cm-1
   889    15621.66958234    43474.00402227       29.92723104      cm-1
   890    15621.66958234    43474.00402227       20.00646189      cm-1
   891    15621.66958234    43474.00402227       11.99514955      cm-1
   892    15621.66958234    43474.00402227        6.06604960      cm-1
   893    15621.66958234    43474.00402227        2.00510792      cm-1
   894    15622.11810446    43474.45254438       29.99857907      cm-1
   895    15622.11810446    43474.45254439       20.00000000      cm-1
   896    15622.11810446    43474.45254439       12.00142093      cm-1
   897    15626.67987022    43479.01431015       12.01303188      cm-1
   898    15626.67987022    43479.01431015       20.00000000      cm-1
   899    15626.67987022    43479.01431015       29.98696812      cm-1
   900    15632.57701086    43484.91145079       29.99724096      cm-1
   901    15632.57701086    43484.91145079       19.99056807      cm-1
   902    15632.57701086    43484.91145079       11.98837970      cm-1
   903    15632.57701086    43484.91145079        6.00451914      cm-1
   904    15632.57701086    43484.91145079        2.01929214      cm-1
   905    27339.60932471    55191.94376464        6.00000000      cm-1
   906    27403.47549666    55255.80993659       11.99979091      cm-1
   907    27403.47549666    55255.80993659        6.00000000      cm-1
   908    27403.47549666    55255.80993659        2.00020909      cm-1
   909    27529.55291941    55381.88735934       19.96424471      cm-1
   910    27529.55291941    55381.88735934       11.18253648      cm-1
   911    27529.55291941    55381.88735934        6.37469252      cm-1
   912    27529.55291941    55381.88735934        2.43343223      cm-1
   913    27529.55291941    55381.88735934        0.04509406      cm-1
   914    27714.73472460    55567.06916453       29.96990528      cm-1
   915    27714.73472460    55567.06916453       19.93862843      cm-1
   916    27714.73472460    55567.06916453       11.99127887      cm-1
   917    27714.73472460    55567.06916453        5.97080787      cm-1
   918    27714.73472460    55567.06916453        2.12937954      cm-1
   919    27954.81060397    55807.14504390       41.88559894      cm-1
   920    27954.81060397    55807.14504390       29.77108591      cm-1
   921    27954.81060397    55807.14504390       20.07484488      cm-1
   922    27954.81060397    55807.14504390       12.03698897      cm-1
   923    27954.81060397    55807.14504390        6.23148130      cm-1
 Analysis of SCF Wavefunction

 --------------------------------------------------------------

                    Orbital Energies (a.u.)
 --------------------------------------------------------------

 Alpha MOs
 -- Occupied --
 -0.914  -0.914  -0.518  -0.516  -0.516  -0.516  -0.515  -0.516
 -0.516  -0.515  -0.515  -0.516  -0.516  -0.516
 -- Virtual --
  0.882   0.949   1.019   0.983   1.013   0.990   1.308   0.969
  0.991   1.153   0.973   1.211   0.931   0.958

 Beta MOs
 -- Occupied --
 -0.914  -0.914
 -- Virtual --
  0.147   0.146   0.146   0.146   0.148   0.146   0.146   0.149
  0.147   0.147   0.146   0.146   1.056   1.107   1.175   1.153
  1.183   1.156   1.346   1.131   1.155   1.251   1.140   1.282
  1.095   1.135
 --------------------------------------------------------------

          Ground-State Mulliken Net Atomic Charges

     Atom                 Charge (a.u.)
  ----------------------------------------
      1 H                     0.000112
      2 H                     0.000007
      3 H                    -0.000001
      4 H                     0.000002
      5 H                    -0.000001
      6 H                    -0.000000
      7 H                     0.000002
      8 H                    -0.000001
      9 H                     0.000064
     10 H                    -0.000053
     11 H                    -0.000065
     12 H                    -0.000066
     13 He                    0.000000
     14 He                    0.000000
  ----------------------------------------
  Sum of atomic charges =    -0.000000

 -----------------------------------------------------------------
                    Cartesian Multipole Moments
 -----------------------------------------------------------------
    Charge (ESU x 10^10)
                -0.0000
    Dipole Moment (Debye)
         X      -0.0006      Y      -0.0005      Z       0.0001
       Tot       0.0008
    Quadrupole Moments (Debye-Ang)
        XX     -19.5956     XY       0.0137     YY     -19.5145
        XZ       0.0003     YZ      -0.0001     ZZ     -19.5154
    Octopole Moments (Debye-Ang^2)
       XXX    -368.1402    XXY    -154.8824    XYY    -121.0797
       YYY    -467.1654    XXZ    -139.1340    XYZ      -0.0170
       YYZ    -140.0109    XZZ    -120.3125    YZZ    -154.7561
       ZZZ    -419.3150
    Hexadecapole Moments (Debye-Ang^3)
      XXXX  -16208.6797   XXXY   -8612.0352   XXYY   -6307.1918
      XYYY   -8556.3949   YYYY  -21656.3889   XXXZ   -7223.6259
      XXYZ   -3063.6580   XYYZ   -2419.2791   YYYZ   -9231.4759
      XXZZ   -5280.9799   XYZZ   -2863.4240   YYZZ   -6290.8369
      XZZZ   -7205.8153   YZZZ   -9233.6824   ZZZZ  -15761.5362
 -----------------------------------------------------------------
 JobOver = TRUE
Archival summary:
1\1\sinatra\SP\ROProcedureUnspecified\6-31G*\e212()\nmayhall\FriMar2423:16:462017FriMar2423:16:462017\0\\#,ROProcedureUnspecified,6-31G*,\\0,13\H\H,1,1.8108\H,2,1.8111,1,60.0291\H,3,1.81133,2,60.0389,1,70.5227,0\H,1,2.837,2,152.386,3,178.05,0\H,5,1.8112,1,73.0863,2,-68.5028,0\H,6,1.81121,5,60.0005,1,-92.9521,0\H,7,1.81039,6,60.0315,5,-70.571,0\He,7,15.8083,6,158.527,5,-60.8442,0\He,3,15.8122,2,135.735,1,128.038,0\H,9,19.7428,7,173.346,6,-112.135,0\H,11,1.81065,9,142.512,7,-67.7286,0\H,11,1.81086,9,128.308,7,21.3783,0\H,12,1.81131,11,60.0237,9,44.5891,0\\HF=-11.4722332\\@

 Total job time:  0.43s(wall), 0.43s(cpu) 
 Fri Mar 24 23:16:46 2017

        *************************************************************
        *                                                           *
        *  Thank you very much for using Q-Chem.  Have a nice day.  *
        *                                                           *
        *************************************************************


*** MISSION COMPLETED -- STARFLEET OUT ***

