                  Welcome to Q-Chem
     A Quantum Leap Into The Future Of Chemistry


 Q-Chem 4.3, Q-Chem, Inc., Pleasanton, CA (2015)

 Y. Shao,  Z. Gan,  E. Epifanovsky,  A. T. B. Gilbert,  M. Wormit,  
 J. Kussmann,  A. W. Lange,  A. Behn,  J. Deng,  X. Feng,  D. Ghosh,  
 M. Goldey,  P. R. Horn,  L. D. Jacobson,  I. Kaliman,  R. Z. Khaliullin,  
 T. Kus,  A. Landau,  J. Liu,  E. I. Proynov,  Y. M. Rhee,  R. M. Richard,  
 M. A. Rohrdanz,  R. P. Steele,  E. J. Sundstrom,  H. L. Woodcock III,  
 P. M. Zimmerman,  D. Zuev,  B. Albrecht,  E. Alguire,  B. Austin,  
 S. A. Baeppler,  G. J. O. Beran,  Y. A. Bernard,  E. Berquist,  
 K. Brandhorst,  K. B. Bravaya,  S. T. Brown,  D. Casanova,  C.-M. Chang,  
 Y. Chen,  S. H. Chien,  K. D. Closser,  D. L. Crittenden,  M. Diedenhofen,  
 R. A. DiStasio Jr.,  H. Do,  A. D. Dutoi,  R. G. Edgar,  P.-T. Fang,  
 S. Fatehi,  Q. Feng,  L. Fusti-Molnar,  A. Ghysels,  
 A. Golubeva-Zadorozhnaya,  J. Gomes,  A. Gunina,  M. W. D. Hanson-Heine,  
 P. H. P. Harbach,  A. W. Hauser,  E. G. Hohenstein,  Z. C. Holden,  K. Hui,  
 T.-C. Jagau,  H. Ji,  B. Kaduk,  K. Khistyaev,  Jaehoon Kim,  Jihan Kim,  
 R. A. King,  P. Klunzinger,  D. Kosenkov,  T. Kowalczyk,  C. M. Krauter,  
 K. U. Lao,  A. Laurent,  K. V. Lawler,  S. Lehtola,  S. V. Levchenko,  
 C. Y. Lin,  Y.-S. Lin,  F. Liu,  E. Livshits,  R. C. Lochan,  A. Luenser,  
 P. Manohar,  S. F. Manzer,  S.-P. Mao,  N. Mardirossian,  A. V. Marenich,  
 L. A. Martinez-Martinez,  S. A. Maurer,  N. J. Mayhall,  K. Nanda,  
 C. M. Oana,  R. Olivares-Amaya,  D. P. O'Neill,  J. A. Parkhill,  
 T. M. Perrine,  R. Peverati,  P. A. Pieniazek,  F. Plasser,  A. Prociuk,  
 D. R. Rehn,  E. Rosta,  N. J. Russ,  N. Sergueev,  S. M. Sharada,  
 S. Sharma,  D. W. Small,  A. Sodt,  T. Stauch,  T. Stein,  D. Stuck,  
 Y.-C. Su,  A. J. W. Thom,  T. Tsuchimochi,  L. Vogt,  O. Vydrov,  T. Wang,  
 M. A. Watson,  J. Wenzel,  A. White,  C. F. Williams,  V. Vanovschi,  
 S. Yeganeh,  S. R. Yost,  Z.-Q. You,  I. Y. Zhang,  X. Zhang,  Y. Zhao,  
 B. R. Brooks,  G. K. L. Chan,  D. M. Chipman,  C. J. Cramer,  
 W. A. Goddard III,  M. S. Gordon,  W. J. Hehre,  A. Klamt,  
 H. F. Schaefer III,  M. W. Schmidt,  C. D. Sherrill,  D. G. Truhlar,  
 A. Warshel,  X. Xu,  A. Aspuru-Guzik,  R. Baer,  A. T. Bell,  N. A. Besley,  
 J.-D. Chai,  A. Dreuw,  B. D. Dunietz,  T. R. Furlani,  S. R. Gwaltney,  
 C.-P. Hsu,  Y. Jung,  J. Kong,  D. S. Lambrecht,  W. Liang,  C. Ochsenfeld,  
 V. A. Rassolov,  L. V. Slipchenko,  J. E. Subotnik,  T. Van Voorhis,  
 J. M. Herbert,  A. I. Krylov,  P. M. W. Gill,  M. Head-Gordon

 Contributors to earlier versions of Q-Chem not listed above: 
 R. D. Adamson,  J. Baker,  E. F. C. Byrd,  A. K. Chakraborty,  C.-L. Cheng,  
 H. Dachsel,  R. J. Doerksen,  G. Hawkins,  A. Heyden,  S. Hirata,  
 G. Kedziora,  F. J. Keil,  C. Kelley,  P. P. Korambath,  W. Kurlancheek,  
 A. M. Lee,  M. S. Lee,  D. Liotard,  I. Lotan,  P. E. Maslen,  N. Nair,  
 D. Neuhauser,  R. Olson,  B. Peters,  J. Ritchie,  N. E. Schultz,  
 N. Shenvi,  A. C. Simmonett,  K. S. Thanthiriwatte,  Q. Wu,  W. Zhang

 Please cite Q-Chem as follows:
 Y. Shao et al., Mol. Phys. 113, 184-215 (2015)
 DOI: 10.1080/00268976.2014.952696

 Q-Chem 4.3.0 for Intel X86 EM64T Linux

 Parts of Q-Chem use Armadillo 5.200.1 (Boston Tea Smuggler).
 http://arma.sourceforge.net/

 Q-Chem begins on Sun Mar 26 10:46:11 2017  


Host: 0

     Scratch files written to /home/nmayhall/scratch_qchem/qchem11049//
 Dec1416 |home|nmayhall|qcSoftware|qchem|qchem.svn-casman|libmdc|qstr_RNUM -1
 Using version located at /home/nmayhall/qcSoftware/qchem/qchem.svn-casman/bin/qchem


Total Memory Limit in MB = 2000
Mega-Array Size in MB = 62

Checking the input file for inconsistencies... 	...done.

 Q-Chem warning in module /home/nmayhall/qcSoftware/qchem/qchem.svn-casman/forms1/BasisType.C, line 1452:

 You are not using the predefined 5D/6D in this basis set.

Finally everything over in PARseQInput

--------------------------------------------------------------
User input:
--------------------------------------------------------------
$rem
	exchange 		hf
	unrestricted		1
	basis			6-31g*	
	aux_basis		rimp2-vdz
	scf_guess		core	
	scf_convergence		8
	purecart		1111

	symmetry		0
	sym_ignore		1

	!correlation		sf-cas
	!cas_n_spin_flip		1
	!cas_local		1
	gui			2
$end

$development
	1sf_heis_projection	1
$end

$molecule
0 13
H         -0.73854       -0.54065        0.08576
H         -2.31340       -1.01748       -0.67017
H         -2.09582        0.65549       -0.01146
H         -2.21044       -0.75437        1.11995
H	1.47674	3.17203	0.09828
H	0.1685	3.76022	1.20546
H	0.18287	2.0348	0.65668
H	-0.21686	3.35528	-0.51743
H          3.48850       -0.87553       -0.06084
H          2.29649        0.48578       -0.00191
H          1.93960       -1.06676        0.85992
H          1.91588       -1.00965       -0.95022
He	10	10	10	
He	-10	10	10	
$end


--------------------------------------------------------------
 ----------------------------------------------------------------
             Standard Nuclear Orientation (Angstroms)
    I     Atom           X                Y                Z
 ----------------------------------------------------------------
    1      H      -0.7385400000    -0.5406500000     0.0857600000
    2      H      -2.3134000000    -1.0174800000    -0.6701700000
    3      H      -2.0958200000     0.6554900000    -0.0114600000
    4      H      -2.2104400000    -0.7543700000     1.1199500000
    5      H       1.4767400000     3.1720300000     0.0982800000
    6      H       0.1685000000     3.7602200000     1.2054600000
    7      H       0.1828700000     2.0348000000     0.6566800000
    8      H      -0.2168600000     3.3552800000    -0.5174300000
    9      H       3.4885000000    -0.8755300000    -0.0608400000
   10      H       2.2964900000     0.4857800000    -0.0019100000
   11      H       1.9396000000    -1.0667600000     0.8599200000
   12      H       1.9158800000    -1.0096500000    -0.9502200000
   13      He     10.0000000000    10.0000000000    10.0000000000
   14      He    -10.0000000000    10.0000000000    10.0000000000
 ----------------------------------------------------------------
 Nuclear Repulsion Energy =    12.9150084829 hartrees
 There are       14 alpha and        2 beta electrons
 Requested basis set is 6-31G(d)
 There are 28 shells and 28 basis functions

Total QAlloc Memory Limit   2000 MB
Mega-Array Size        61 MB
MEM_STATIC part        62 MB

finished with qalloc call

                       Distance Matrix (Angstroms)
             H (  1)   H (  2)   H (  3)   H (  4)   H (  5)   H (  6)
   H (  2)  1.810796
   H (  3)  1.811743  1.811096
   H (  4)  1.811550  1.812280  1.811334
   H (  5)  4.323380  5.701550  4.371293  5.482310
   H (  6)  4.535850  5.701248  4.030805  5.103743  1.811990
   H (  7)  2.794260  4.160325  2.746149  3.704325  1.810857  1.810646
   H (  8)  3.976715  4.851787  3.327967  4.852278  1.811342  1.811306
   H (  9)  4.242818  5.835536  5.790604  5.821242  4.522747  5.840898
   H ( 10)  3.205098  4.894635  4.395598  4.807178  2.810332  4.087547
   H ( 11)  2.836997  4.520134  4.473261  4.169896  4.331475  5.153245
   H ( 12)  2.887761  4.238549  4.443838  4.623558  4.333433  5.518329
   He( 13) 18.019814 19.668686 18.271783 18.536629 14.741479 14.592367
   He( 14) 17.180573 17.155792 15.812187 15.974636 16.624704 14.821511
             H (  7)   H (  8)   H (  9)   H ( 10)   H ( 11)   H ( 12)
   H (  8)  1.811625
   H (  9)  4.462291  5.642510
   H ( 10)  2.701961  3.849249  1.810394
   H ( 11)  3.570305  5.108997  1.812032  1.811216
   H ( 12)  3.854105  4.877346  1.811662  1.811206  1.811196
   He( 13) 15.719990 16.098226 16.183241 15.808310 16.461600 17.506362
   He( 14) 15.950952 15.826511 20.035900 18.486813 18.669984 19.573143
             He( 13)
   He( 14) 20.000000


 Q-Chem warning in module /home/nmayhall/qcSoftware/qchem/qchem.svn-casman/forms1/BasisType.C, line 1375:

 SAD: How to set up polarization functions for non-Pople basis?

 Requested basis set is rimp2-VDZ
 There are 82 shells and 186 basis functions
 Job number = 2, Threshold = 1.00E-11
Integral type ranges set in mkLRange.C for JobNum: 2  <1-7|1-7>
Symmetry turned off temporarily
 Using the largest function pair in Schwarz integrals
Total number of integrals generated =            1014
Symmetry turned back on
 A cutoff of  1.0D-11 yielded    288 shell pairs
 There are       288 function pairs
 Job number = 11, Threshold = 1.00E-11
Integral type ranges set in mkLRange.C for JobNum: 11  <1-1|8-8>

 -------------------------------------------------------
 OpenMP Integral Computing Module                       
 Release: version 1.0, May 2013, Q-Chem Inc. Pittsburgh 
 -------------------------------------------------------
 Integral Job Info:
 Integral job number is                      11
 Integral operator is                         1
 short-range coefficients                     0
 long-range coefficients              100000000
 Omega coefficients                           0
 if combine SR and LR in K                    0
 Integral screening is                        0
 Integral computing path is                   2
 max size of driver memory is            800000
 size of driver memory is                 11780
 size of scratch memory is               800000
 max col of scratch BK array                289
 max len of scratch array in speh3            1
 max len of scratch index in speh4            2
 max int batch size is                      520
 min int batch size is                       52
 fixed nKL is                               520
 max L of basis functions is                  0
 order of int derivative is                   0
 number of shells is                         28
 number of basis is                          28
 number of cartesian basis is                28
 number of contracted shell pairs           288
 number of primitive shell pairs            812
 maxK2 (contraction) of shell pair            9
 max number of K2 of shell pair               1
 max number of CS2 of shell pair            147
 max number of PS2 of shell pair            441
 mem total for path MDJ                    6780
 -------------------------------------------------------
 Smallest overlap matrix eigenvalue = 1.90E-01
 Multipole matrices computed through 2nd order

  Scale SEOQF with 1.000000e-02/1.000000e-02/1.000000e-02

 Standard Electronic Orientation quadrupole field applied
 Nucleus-field energy     =     0.0000000004 hartrees
GuessMan:  IGuess = 1
 Guess MOs from core Hamiltonian diagonalization
scfman initvdwdat 
 An unrestricted Hartree-Fock SCF calculation will be
 performed using Pulay DIIS extrapolation
 SCF converges when DIIS error is below 1.0E-08
Finding J and K together
 Job number = 22, Threshold = 1.00E-11
Integral type ranges set in mkLRange.C for JobNum: 22  <1-1|1-1>
Storing 4368.95% of integrals
Total number of integrals generated =           37592
 MakeJK  time:  CPU       0.01 s  wall       0.01 s
Fock build time:  0.01 s (CPU) 0.01 s (wall)
DIIS Errors:  Max 3.60E-01 RMS 3.06E-02

Current DIIS subspace size = 1
REM_GRID_RESTART_DIIS = 0

 ---------------------------------------
  Cycle       Energy         DIIS Error
 ---------------------------------------
    1      -9.4456143019      3.06E-02  00000
Finding J and K together
 Job number = 22, Threshold = 1.00E-11
Integral type ranges set in mkLRange.C for JobNum: 22  <1-1|1-1>
Storing 4368.95% of integrals
Reusing in-core integrals buffer for job 22
 MakeJK  time:  CPU       0.00 s  wall       0.00 s
Fock build time:  0.00 s (CPU) 0.00 s (wall)
DIIS Errors:  Max 2.54E-01 RMS 1.94E-02

Current DIIS subspace size = 2
REM_GRID_RESTART_DIIS = 0

    2     -11.3658251073      1.94E-02  00000
Finding J and K together
 Job number = 22, Threshold = 1.00E-11
Integral type ranges set in mkLRange.C for JobNum: 22  <1-1|1-1>
Storing 4368.95% of integrals
Reusing in-core integrals buffer for job 22
 MakeJK  time:  CPU       0.00 s  wall       0.00 s
Fock build time:  0.00 s (CPU) 0.00 s (wall)
DIIS Errors:  Max 1.05E-01 RMS 8.34E-03

Current DIIS subspace size = 3
REM_GRID_RESTART_DIIS = 0

    3     -11.4354987801      8.34E-03  00000
Finding J and K together
 Job number = 22, Threshold = 1.00E-11
Integral type ranges set in mkLRange.C for JobNum: 22  <1-1|1-1>
Storing 4368.95% of integrals
Reusing in-core integrals buffer for job 22
 MakeJK  time:  CPU       0.00 s  wall       0.00 s
Fock build time:  0.00 s (CPU) 0.00 s (wall)
DIIS Errors:  Max 9.57E-03 RMS 9.41E-04

Current DIIS subspace size = 4
REM_GRID_RESTART_DIIS = 0

    4     -11.4657242397      9.41E-04  00000
Finding J and K together
 Job number = 22, Threshold = 1.00E-11
Integral type ranges set in mkLRange.C for JobNum: 22  <1-1|1-1>
Storing 4368.95% of integrals
Reusing in-core integrals buffer for job 22
 MakeJK  time:  CPU       0.00 s  wall       0.00 s
Fock build time:  0.00 s (CPU) 0.00 s (wall)
DIIS Errors:  Max 1.38E-04 RMS 1.08E-05

Current DIIS subspace size = 5
REM_GRID_RESTART_DIIS = 0

    5     -11.4683862045      1.08E-05  00000
Finding J and K together
 Job number = 22, Threshold = 1.00E-11
Integral type ranges set in mkLRange.C for JobNum: 22  <1-1|1-1>
Storing 4368.95% of integrals
Reusing in-core integrals buffer for job 22
 MakeJK  time:  CPU       0.00 s  wall       0.00 s
Fock build time:  0.00 s (CPU) 0.00 s (wall)
DIIS Errors:  Max 1.26E-05 RMS 9.58E-07

Current DIIS subspace size = 6
REM_GRID_RESTART_DIIS = 0

    6     -11.4684937869      9.58E-07  00000
Finding J and K together
 Job number = 22, Threshold = 1.00E-11
Integral type ranges set in mkLRange.C for JobNum: 22  <1-1|1-1>
Storing 4368.95% of integrals
Reusing in-core integrals buffer for job 22
 MakeJK  time:  CPU       0.00 s  wall       0.00 s
Fock build time:  0.00 s (CPU) 0.00 s (wall)
DIIS Errors:  Max 9.02E-07 RMS 7.17E-08

Current DIIS subspace size = 7
REM_GRID_RESTART_DIIS = 0

    7     -11.4685100109      7.17E-08  00000
Finding J and K together
 Job number = 22, Threshold = 1.00E-11
Integral type ranges set in mkLRange.C for JobNum: 22  <1-1|1-1>
Storing 4368.95% of integrals
Reusing in-core integrals buffer for job 22
 MakeJK  time:  CPU       0.00 s  wall       0.00 s
Fock build time:  0.00 s (CPU) 0.00 s (wall)
DIIS Errors:  Max 9.93E-08 RMS 8.14E-09

Current DIIS subspace size = 8
REM_GRID_RESTART_DIIS = 0

    8     -11.4685130948      8.14E-09  00000 Convergence criterion met
 ---------------------------------------
 <S^2> = 42.0000
 SCF time:  CPU 0.04 s  wall 0.04 s
 SCF   energy in the final basis set = -11.4685130948
 Total energy in the final basis set = -11.4685130948
Symmetry turned off temporarily
 Analysis of SCF Wavefunction

 --------------------------------------------------------------

                    Orbital Energies (a.u.)
 --------------------------------------------------------------

 Alpha MOs
 -- Occupied --
 -0.914  -0.914  -0.714  -0.698  -0.698  -0.478  -0.469  -0.465
 -0.455  -0.453  -0.452  -0.442  -0.440  -0.429
 -- Virtual --
  0.812   0.854   0.867   0.901   0.926   0.928   0.973   0.989
  1.012   1.057   1.157   1.186   1.400   1.400

 Beta MOs
 -- Occupied --
 -0.914  -0.914
 -- Virtual --
 -0.056  -0.033  -0.032   0.129   0.140   0.146   0.159   0.165
  0.167   0.188   0.192   0.209   1.041   1.072   1.082   1.108
  1.129   1.130   1.171   1.186   1.207   1.259   1.353   1.379
  1.400   1.400
 --------------------------------------------------------------

          Ground-State Mulliken Net Atomic Charges

     Atom                 Charge (a.u.)    Spin (a.u.)
  --------------------------------------------------------
      1 H                     0.000051       0.999949
      2 H                     0.000047       0.999953
      3 H                    -0.000019       1.000019
      4 H                    -0.000001       1.000001
      5 H                    -0.000040       1.000040
      6 H                     0.000037       0.999963
      7 H                     0.000034       0.999966
      8 H                    -0.000051       1.000051
      9 H                     0.000072       0.999928
     10 H                     0.000047       0.999953
     11 H                    -0.000092       1.000092
     12 H                    -0.000086       1.000086
     13 He                    0.000000      -0.000000
     14 He                    0.000000      -0.000000
  --------------------------------------------------------
  Sum of atomic charges =    -0.000000
  Sum of spin   charges =    12.000000

 -----------------------------------------------------------------
                    Cartesian Multipole Moments
 -----------------------------------------------------------------
    Charge (ESU x 10^10)
                -0.0000
    Dipole Moment (Debye)
         X       0.0001      Y      -0.0005      Z       0.0004
       Tot       0.0006
    Quadrupole Moments (Debye-Ang)
        XX     -19.6817     XY       0.0200     YY     -19.6440
        XZ      -0.0013     YZ      -0.0327     ZZ     -19.5105
    Octopole Moments (Debye-Ang^2)
       XXX     -19.5555    XXY     -32.1452    XYY      -4.8699
       YYY     -99.8115    XXZ     -22.8865    XYZ      -0.0190
       YYZ     -23.8857    XZZ      -4.1046    YZZ     -32.1747
       ZZZ     -70.7111
    Hexadecapole Moments (Debye-Ang^3)
      XXXX   -1643.2633   XXXY      -8.4477   XXYY    -551.4322
      XYYY      -7.7906   YYYY   -1654.4881   XXXZ       3.4426
      XXYZ    -213.6700   XYYZ       0.0886   YYYZ    -649.0876
      XXZZ    -491.0227   XYZZ      -2.4493   YYZZ    -501.0901
      XZZZ       4.4651   YZZZ    -644.5226   ZZZZ   -1318.2336
 -----------------------------------------------------------------
 JobOver = TRUE
Archival summary:
1\1\sinatra\SP\HF\6-31G*\e212()\nmayhall\SunMar2610:46:122017SunMar2610:46:122017\0\\#,HF,6-31G*,\\0,13\H\H,1,1.81065\H,1,1.81086,2,60.0452\H,2,1.81131,1,60.0237,3,-70.5123,0\H,1,2.70196,2,128.785,3,-29.6714,0\H,5,1.81039,1,162.568,2,-125.022,0\H,5,1.81121,1,115.886,2,162.914,0\H,7,1.8112,5,60.0005,1,90.2209,0\H,1,2.74615,2,123.078,3,140.571,0\H,9,1.8111,1,130.703,2,-175.903,0\H,10,1.8108,9,60.0291,1,-16.4918,0\H,9,1.81133,1,106.947,2,119.346,0\He,2,14.5924,1,125.789,3,67.2233,0\He,2,14.8215,1,125.906,3,-178.746,0\\HF=-11.4685131\\@

 Total job time:  0.10s(wall), 0.10s(cpu) 
 Sun Mar 26 10:46:12 2017

        *************************************************************
        *                                                           *
        *  Thank you very much for using Q-Chem.  Have a nice day.  *
        *                                                           *
        *************************************************************


*** MISSION COMPLETED -- STARFLEET OUT ***

 
User input: 2 of 2 
 
                  Welcome to Q-Chem
     A Quantum Leap Into The Future Of Chemistry


 Q-Chem 4.3, Q-Chem, Inc., Pleasanton, CA (2015)

 Y. Shao,  Z. Gan,  E. Epifanovsky,  A. T. B. Gilbert,  M. Wormit,  
 J. Kussmann,  A. W. Lange,  A. Behn,  J. Deng,  X. Feng,  D. Ghosh,  
 M. Goldey,  P. R. Horn,  L. D. Jacobson,  I. Kaliman,  R. Z. Khaliullin,  
 T. Kus,  A. Landau,  J. Liu,  E. I. Proynov,  Y. M. Rhee,  R. M. Richard,  
 M. A. Rohrdanz,  R. P. Steele,  E. J. Sundstrom,  H. L. Woodcock III,  
 P. M. Zimmerman,  D. Zuev,  B. Albrecht,  E. Alguire,  B. Austin,  
 S. A. Baeppler,  G. J. O. Beran,  Y. A. Bernard,  E. Berquist,  
 K. Brandhorst,  K. B. Bravaya,  S. T. Brown,  D. Casanova,  C.-M. Chang,  
 Y. Chen,  S. H. Chien,  K. D. Closser,  D. L. Crittenden,  M. Diedenhofen,  
 R. A. DiStasio Jr.,  H. Do,  A. D. Dutoi,  R. G. Edgar,  P.-T. Fang,  
 S. Fatehi,  Q. Feng,  L. Fusti-Molnar,  A. Ghysels,  
 A. Golubeva-Zadorozhnaya,  J. Gomes,  A. Gunina,  M. W. D. Hanson-Heine,  
 P. H. P. Harbach,  A. W. Hauser,  E. G. Hohenstein,  Z. C. Holden,  K. Hui,  
 T.-C. Jagau,  H. Ji,  B. Kaduk,  K. Khistyaev,  Jaehoon Kim,  Jihan Kim,  
 R. A. King,  P. Klunzinger,  D. Kosenkov,  T. Kowalczyk,  C. M. Krauter,  
 K. U. Lao,  A. Laurent,  K. V. Lawler,  S. Lehtola,  S. V. Levchenko,  
 C. Y. Lin,  Y.-S. Lin,  F. Liu,  E. Livshits,  R. C. Lochan,  A. Luenser,  
 P. Manohar,  S. F. Manzer,  S.-P. Mao,  N. Mardirossian,  A. V. Marenich,  
 L. A. Martinez-Martinez,  S. A. Maurer,  N. J. Mayhall,  K. Nanda,  
 C. M. Oana,  R. Olivares-Amaya,  D. P. O'Neill,  J. A. Parkhill,  
 T. M. Perrine,  R. Peverati,  P. A. Pieniazek,  F. Plasser,  A. Prociuk,  
 D. R. Rehn,  E. Rosta,  N. J. Russ,  N. Sergueev,  S. M. Sharada,  
 S. Sharma,  D. W. Small,  A. Sodt,  T. Stauch,  T. Stein,  D. Stuck,  
 Y.-C. Su,  A. J. W. Thom,  T. Tsuchimochi,  L. Vogt,  O. Vydrov,  T. Wang,  
 M. A. Watson,  J. Wenzel,  A. White,  C. F. Williams,  V. Vanovschi,  
 S. Yeganeh,  S. R. Yost,  Z.-Q. You,  I. Y. Zhang,  X. Zhang,  Y. Zhao,  
 B. R. Brooks,  G. K. L. Chan,  D. M. Chipman,  C. J. Cramer,  
 W. A. Goddard III,  M. S. Gordon,  W. J. Hehre,  A. Klamt,  
 H. F. Schaefer III,  M. W. Schmidt,  C. D. Sherrill,  D. G. Truhlar,  
 A. Warshel,  X. Xu,  A. Aspuru-Guzik,  R. Baer,  A. T. Bell,  N. A. Besley,  
 J.-D. Chai,  A. Dreuw,  B. D. Dunietz,  T. R. Furlani,  S. R. Gwaltney,  
 C.-P. Hsu,  Y. Jung,  J. Kong,  D. S. Lambrecht,  W. Liang,  C. Ochsenfeld,  
 V. A. Rassolov,  L. V. Slipchenko,  J. E. Subotnik,  T. Van Voorhis,  
 J. M. Herbert,  A. I. Krylov,  P. M. W. Gill,  M. Head-Gordon

 Contributors to earlier versions of Q-Chem not listed above: 
 R. D. Adamson,  J. Baker,  E. F. C. Byrd,  A. K. Chakraborty,  C.-L. Cheng,  
 H. Dachsel,  R. J. Doerksen,  G. Hawkins,  A. Heyden,  S. Hirata,  
 G. Kedziora,  F. J. Keil,  C. Kelley,  P. P. Korambath,  W. Kurlancheek,  
 A. M. Lee,  M. S. Lee,  D. Liotard,  I. Lotan,  P. E. Maslen,  N. Nair,  
 D. Neuhauser,  R. Olson,  B. Peters,  J. Ritchie,  N. E. Schultz,  
 N. Shenvi,  A. C. Simmonett,  K. S. Thanthiriwatte,  Q. Wu,  W. Zhang

 Please cite Q-Chem as follows:
 Y. Shao et al., Mol. Phys. 113, 184-215 (2015)
 DOI: 10.1080/00268976.2014.952696

 Q-Chem 4.3.0 for Intel X86 EM64T Linux

 Parts of Q-Chem use Armadillo 5.200.1 (Boston Tea Smuggler).
 http://arma.sourceforge.net/

 Q-Chem begins on Sun Mar 26 10:46:12 2017  


Host: 0

     Scratch files written to /home/nmayhall/scratch_qchem/qchem11049//
 Dec1416 |home|nmayhall|qcSoftware|qchem|qchem.svn-casman|libmdc|qstr_RNUM -1
 Using version located at /home/nmayhall/qcSoftware/qchem/qchem.svn-casman/bin/qchem

 Turning off symmetry for CASMAN

Total Memory Limit in MB = 2000
Mega-Array Size in MB = 62

Checking the input file for inconsistencies... 	...done.

 Q-Chem warning in module /home/nmayhall/qcSoftware/qchem/qchem.svn-casman/forms1/BasisType.C, line 1452:

 You are not using the predefined 5D/6D in this basis set.

Finally everything over in PARseQInput

--------------------------------------------------------------
User input:
--------------------------------------------------------------
$rem
	exchange 		hf
	unrestricted		0
	basis			6-31g*	
	aux_basis		rimp2-vdz
	scf_guess		read	
	scf_convergence		8
	purecart		1111

	symmetry		0
	sym_ignore		1

	correlation		sf-cas
	cas_n_spin_flip		1
	cas_local		1
	gui			2
$end

$development
	1sf_heis_projection	1
	scf_corresponding_orbs	1
	heisenberg_n_roots	1
$end

$molecule
read
$end

--------------------------------------------------------------
 ----------------------------------------------------------------
             Standard Nuclear Orientation (Angstroms)
    I     Atom           X                Y                Z
 ----------------------------------------------------------------
    1      H      -0.7385400000    -0.5406500000     0.0857600000
    2      H      -2.3134000000    -1.0174800000    -0.6701700000
    3      H      -2.0958200000     0.6554900000    -0.0114600000
    4      H      -2.2104400000    -0.7543700000     1.1199500000
    5      H       1.4767400000     3.1720300000     0.0982800000
    6      H       0.1685000000     3.7602200000     1.2054600000
    7      H       0.1828700000     2.0348000000     0.6566800000
    8      H      -0.2168600000     3.3552800000    -0.5174300000
    9      H       3.4885000000    -0.8755300000    -0.0608400000
   10      H       2.2964900000     0.4857800000    -0.0019100000
   11      H       1.9396000000    -1.0667600000     0.8599200000
   12      H       1.9158800000    -1.0096500000    -0.9502200000
   13      He     10.0000000000    10.0000000000    10.0000000000
   14      He    -10.0000000000    10.0000000000    10.0000000000
 ----------------------------------------------------------------
 Nuclear Repulsion Energy =    12.9150084829 hartrees
 There are       14 alpha and        2 beta electrons
 Requested basis set is 6-31G(d)
 There are 28 shells and 28 basis functions

Total QAlloc Memory Limit   2000 MB
Mega-Array Size        61 MB
MEM_STATIC part        62 MB

finished with qalloc call

                       Distance Matrix (Angstroms)
             H (  1)   H (  2)   H (  3)   H (  4)   H (  5)   H (  6)
   H (  2)  1.810796
   H (  3)  1.811743  1.811096
   H (  4)  1.811550  1.812280  1.811334
   H (  5)  4.323380  5.701550  4.371293  5.482310
   H (  6)  4.535850  5.701248  4.030805  5.103743  1.811990
   H (  7)  2.794260  4.160325  2.746149  3.704325  1.810857  1.810646
   H (  8)  3.976715  4.851787  3.327967  4.852278  1.811342  1.811306
   H (  9)  4.242818  5.835536  5.790604  5.821242  4.522747  5.840898
   H ( 10)  3.205098  4.894635  4.395598  4.807178  2.810332  4.087547
   H ( 11)  2.836997  4.520134  4.473261  4.169896  4.331475  5.153245
   H ( 12)  2.887761  4.238549  4.443838  4.623558  4.333433  5.518329
   He( 13) 18.019814 19.668686 18.271783 18.536629 14.741479 14.592367
   He( 14) 17.180573 17.155792 15.812187 15.974636 16.624704 14.821511
             H (  7)   H (  8)   H (  9)   H ( 10)   H ( 11)   H ( 12)
   H (  8)  1.811625
   H (  9)  4.462291  5.642510
   H ( 10)  2.701961  3.849249  1.810394
   H ( 11)  3.570305  5.108997  1.812032  1.811216
   H ( 12)  3.854105  4.877346  1.811662  1.811206  1.811196
   He( 13) 15.719990 16.098226 16.183241 15.808310 16.461600 17.506362
   He( 14) 15.950952 15.826511 20.035900 18.486813 18.669984 19.573143
             He( 13)
   He( 14) 20.000000


 Q-Chem warning in module /home/nmayhall/qcSoftware/qchem/qchem.svn-casman/forms1/BasisType.C, line 1375:

 SAD: How to set up polarization functions for non-Pople basis?

 Requested basis set is rimp2-VDZ
 There are 82 shells and 186 basis functions
 Job number = 2, Threshold = 1.00E-12
Integral type ranges set in mkLRange.C for JobNum: 2  <1-7|1-7>
Symmetry turned off temporarily
 Using the largest function pair in Schwarz integrals
Total number of integrals generated =            1015
Symmetry turned back on
 A cutoff of  1.0D-12 yielded    289 shell pairs
 There are       289 function pairs
 Job number = 11, Threshold = 1.00E-12
Integral type ranges set in mkLRange.C for JobNum: 11  <1-1|8-8>

 -------------------------------------------------------
 OpenMP Integral Computing Module                       
 Release: version 1.0, May 2013, Q-Chem Inc. Pittsburgh 
 -------------------------------------------------------
 Integral Job Info:
 Integral job number is                      11
 Integral operator is                         1
 short-range coefficients                     0
 long-range coefficients              100000000
 Omega coefficients                           0
 if combine SR and LR in K                    0
 Integral screening is                        0
 Integral computing path is                   2
 max size of driver memory is            800000
 size of driver memory is                 11780
 size of scratch memory is               800000
 max col of scratch BK array                289
 max len of scratch array in speh3            1
 max len of scratch index in speh4            2
 max int batch size is                      520
 min int batch size is                       52
 fixed nKL is                               520
 max L of basis functions is                  0
 order of int derivative is                   0
 number of shells is                         28
 number of basis is                          28
 number of cartesian basis is                28
 number of contracted shell pairs           289
 number of primitive shell pairs            819
 maxK2 (contraction) of shell pair            9
 max number of K2 of shell pair               1
 max number of CS2 of shell pair            148
 max number of PS2 of shell pair            444
 mem total for path MDJ                    6792
 -------------------------------------------------------
 Smallest overlap matrix eigenvalue = 1.90E-01
 Multipole matrices computed through 2nd order

  Scale SEOQF with 1.000000e-02/1.000000e-02/1.000000e-02

 Standard Electronic Orientation quadrupole field applied
 Nucleus-field energy     =     0.0000000004 hartrees
GuessMan:  IGuess = 1000
 Guess MOs from SCF MO coefficient file
 Reading MOs from coefficient file
 Reading MOs from coefficient file
scfman initvdwdat 
 A restricted Hartree-Fock SCF calculation will be
 performed using Geometric Direct Minimization
 SCF converges when RMS gradient is below 1.0E-08
Finding J and K together
 Job number = 22, Threshold = 1.00E-12
Integral type ranges set in mkLRange.C for JobNum: 22  <1-1|1-1>
Storing 4338.82% of integrals
Total number of integrals generated =           38713
 MakeJK  time:  CPU       0.01 s  wall       0.01 s
Fock build time:  0.01 s (CPU) 0.01 s (wall)
 ---------------------------------------
  Cycle       Energy        RMS Gradient
 ---------------------------------------
    1     -11.4685134771      2.54E-04  00000 Normal BFGS step
Finding J and K together
 Job number = 22, Threshold = 1.00E-12
Integral type ranges set in mkLRange.C for JobNum: 22  <1-1|1-1>
Storing 4338.82% of integrals
Reusing in-core integrals buffer for job 22
 MakeJK  time:  CPU       0.00 s  wall       0.00 s
Fock build time:  0.00 s (CPU) 0.00 s (wall)
    2     -11.4685135114      2.38E-09  00000 Convergence criterion met
 ---------------------------------------
 SCF time:  CPU 0.02 s  wall 0.02 s
 Obtaining Corresponding orbitals

 Forming corresponding orbitals block-by-block...
 Size of singly occupied alpha block:      12 : 12.0000
 Size of doubly occupied block:             2 : 2.0000
 Size of singly occupied beta block:        0 : 0.0000
 Size of unoccupied block:                 14 : 14.0000
 Use scf_boys =     0 (Canonical)
                    1 (Boys)
                    2 (Pipek-Mezey)
                    3 (ER)
 Build new fock matrix
 I'm here
 I'm here
 Calling AOints...
 Job number = 22, Threshold = 1.00E-12
Integral type ranges set in mkLRange.C for JobNum: 22  <1-1|1-1>
Storing 4338.82% of integrals
 done.
 E(SCF): disk=    -11.468513511419 current=    -11.468513511419 diff=  -5.329e-15
 SCF   energy in the final basis set = -11.4685135114
 Total energy in the final basis set = -11.4685135114
 DevKeyword Parameters: 
 1sf_heis_projection                   1
  heisenberg_n_roots                   1
scf_corresponding_orbs                   1


 ========================================================
                       In SF-CAS-CI                      
 ========================================================
 DevKeyword Parameters: 
 1sf_heis_projection                   1
  heisenberg_n_roots                   1
scf_corresponding_orbs                   1

 Forming orbitals for SF-CAS calculation.
NBas   : 28
NOrb   : 28
NDOcc  : 2
NSOcc  : 12
NDVir  : 14
ISpin  : 0
e_hf: -11.46851351
 Using OPT1 Orbitals: Favg | Favg | Favg 
 A/B mix in Doubly occupied F  : 0.50000000
 A/B mix in Singly occupied F  : 0.50000000
 A/B mix in Doubly unoccupied F: 0.50000000
 Max of F(beta)ds      : 2.549e-16
 Max of F(alpha)sv     : 1.909e-11
 Max of F(average)dv   : 1.371e-10
 Orbital Energies  (D):
    1    -0.91413120    -0.91413120
    2    -0.91412519    -0.91412519
 Orbital Energies  (S):
    3    -0.37121289    -0.37121289
    4    -0.35310712    -0.35310712
    5    -0.35232549    -0.35232549
    6    -0.15330298    -0.15330298
    7    -0.14418484    -0.14418484
    8    -0.13943570    -0.13943570
    9    -0.12905326    -0.12905326
   10    -0.12555790    -0.12555790
   11    -0.12462057    -0.12462057
   12    -0.11038609    -0.11038609
   13    -0.10781515    -0.10781515
   14    -0.09547916    -0.09547916
 Orbital Energies  (V):
   15     0.90504516     0.90504516
   16     0.94241988     0.94241988
   17     0.95453756     0.95453756
   18     0.98493791     0.98493791
   19     1.00887743     1.00887743
   20     1.01113768     1.01113768
   21     1.05556327     1.05556327
   22     1.07132705     1.07132705
   23     1.09405674     1.09405674
   24     1.14462168     1.14462168
   25     1.24288152     1.24288152
   26     1.27120936     1.27120936
   27     1.39985476     1.39985476
   28     1.39986077     1.39986077
 tr(Pa)     :   14.0000000000
 tr(Pb)     :    2.0000000000
 E(core) with new P : -38.91701462
 E(HF) with new P   : -11.46851351
 Difference in Ehf  :   1.7764e-15

 Number of spin flips: 1
 Use cas_local =    0 (Canonical)
                    1 (Boys)
                    2 (Pipek-Mezey)
                    3 (ER)
 Using Boys orbitals in casman
 
 
 
Calling Get_Boys in C++
 
 
 
Orbital 12 Variance 21.96069503
Orbital 8 Variance 22.05580316
Orbital 9 Variance 22.16334356
Orbital 5 Variance 22.92441596
Orbital 2 Variance 23.42560923
Orbital 3 Variance 23.45501940
Orbital 1 Variance 25.27060439
Orbital 6 Variance 27.26629757
Orbital 4 Variance 27.57412803
Orbital 10 Variance 27.57471051
Orbital 11 Variance 27.88046343
Orbital 7 Variance 29.94912084
          ***** NUMBER OF SADDLE POINTS SO FAR = 0 ******

Initially in boys_jacobi.C before sweep, get_boys, boysval = 69.508591
In BOYS_JACOBI SWEEPS for get_boys, ending in round     6  because max_diff = 5.329212e-07


---> BEGIN 2nd Der Calculation    ******  
Guessing MaxD =  20 and MinD = 10
in get_boys.C: p = 0 guessthresh  52.4157195573 numsofar 18 MinD 10
in get_boys.C: p = 1 guessthresh  51.9157195573 numsofar 18 MinD 10
in get_boys.C: p = 2 guessthresh  51.6657195573 numsofar 9 MinD 10
DimInGuess 9 mineval  51.4157195573 guessthresh  51.6657195573
round 0 sizeofsub 9 eval0 5.069728e+01 diffeval0 1.000497e+05 length_qM 9.022708e-01 thresh 1.000000e-08
round 1 sizeofsub 10 eval0 5.035200e+01 diffeval0 3.452837e-01 length_qM 1.149558e-01 thresh 1.000000e-08
round 2 sizeofsub 11 eval0 5.034586e+01 diffeval0 6.138545e-03 length_qM 4.687682e-01 thresh 1.000000e-08
round 3 sizeofsub 12 eval0 5.034246e+01 diffeval0 3.397820e-03 length_qM 1.614959e-02 thresh 1.000000e-08
round 4 sizeofsub 13 eval0 5.034242e+01 diffeval0 4.159938e-05 length_qM 5.241289e-02 thresh 1.000000e-08
round 5 sizeofsub 14 eval0 5.034236e+01 diffeval0 5.779344e-05 length_qM 3.268812e-03 thresh 1.000000e-08
round 6 sizeofsub 15 eval0 5.034236e+01 diffeval0 1.162190e-07 length_qM 1.942197e-03 thresh 1.000000e-08
round 7 sizeofsub 16 eval0 5.031045e+01 diffeval0 3.191614e-02 length_qM 2.305560e-01 thresh 1.000000e-08
round 8 sizeofsub 17 eval0 5.028822e+01 diffeval0 2.222421e-02 length_qM 3.602186e-01 thresh 1.000000e-08
round 9 sizeofsub 18 eval0 5.028580e+01 diffeval0 2.421510e-03 length_qM 3.496998e-01 thresh 1.000000e-08
round 10 sizeofsub 19 eval0 5.027396e+01 diffeval0 1.183611e-02 length_qM 7.141794e-02 thresh 1.000000e-08
round 11 sizeofsub 20 eval0 5.027283e+01 diffeval0 1.129524e-03 length_qM 2.322529e-01 thresh 1.000000e-08
round 12 sizeofsub 11 eval0 5.027203e+01 diffeval0 8.013085e-04 length_qM 1.278782e-02 thresh 1.000000e-08
round 13 sizeofsub 12 eval0 5.027203e+01 diffeval0 3.551901e-06 length_qM 5.213581e-03 thresh 1.000000e-08
round 14 sizeofsub 13 eval0 5.027203e+01 diffeval0 4.752022e-07 length_qM 1.991322e-03 thresh 1.000000e-08
round 15 sizeofsub 14 eval0 5.027203e+01 diffeval0 2.225065e-07 length_qM 2.761134e-04 thresh 1.000000e-08
round 16 sizeofsub 15 eval0 5.027203e+01 diffeval0 2.755698e-09 length_qM 1.189077e-04 thresh 1.000000e-08
round 17 sizeofsub 16 eval0 5.027203e+01 diffeval0 6.928502e-11 length_qM 3.053696e-06 thresh 1.000000e-08
round 18 sizeofsub 17 eval0 5.027203e+01 diffeval0 2.032152e-12 length_qM 3.261294e-06 thresh 1.000000e-08
round 19 sizeofsub 18 eval0 5.027203e+01 diffeval0 4.121148e-12 length_qM 3.761114e-06 thresh 1.000000e-08
round 20 sizeofsub 19 eval0 5.027203e+01 diffeval0 4.263256e-14 length_qM 2.312020e-07 thresh 1.000000e-08
Converged to smallest eigenvalue: eval0 5.027203e+01

Success!!! No Negative Eigenvalues: Ending Get Boys in C++ ...Bye Bye
Orbital 10 Variance 2.75084222
Orbital 11 Variance 2.75796107
Orbital 12 Variance 2.75813419
Orbital 6 Variance 2.76868525
Orbital 5 Variance 2.76891571
Orbital 9 Variance 2.77143580
Orbital 4 Variance 2.77234586
Orbital 3 Variance 2.77447908
Orbital 1 Variance 2.77473425
Orbital 2 Variance 2.77493018
Orbital 8 Variance 2.77562466
Orbital 7 Variance 2.77598036
EXECUTING ORTHO_FUNC DESTRUCTOR

 Dimensions of orbital sub-spaces:    
 Number Hole Orbs:Alpha:Beta:       2    2    2
 Number Active Orbs:Alpha:Beta:    12   11    1
 Number Part Orbs:Alpha:Beta:      14    0    0

 Dimensions in SF-RAS-hp calculation: 
 Number of active space determinants:  144
 Number of hole space determinants:    1608
 Number of part space determinants:    11256
 Number of hole-part determinants:     130060
 Total 1x space:                       13008
 Total singles space:                  143068
 REM_MEM_TOT: 2000
 Memory Used: 0
 Memory Left: 2000
 Memory Need: 2
 Constructing 1e MO integrals
 Form (P|Q)**(-1/2)...
 Job number = 66, Threshold = 1.00E-12
Integral type ranges set in mkLRange.C for JobNum: 66  <2-7|2-7>
Symmetry turned off temporarily
Storing 4338.82% of integrals
Total number of integrals generated =           19965
Symmetry turned back on
 Forming (pq|P)...
 Forming Active-Active (aa|P) integrals...

 Entering first-index batching code with I1Strt =    3 batch size =   12
 Job number = 65, Threshold = 1.00E-12
Integral type ranges set in mkLRange.C for JobNum: 65  <1-1|2-7>
Symmetry turned off temporarily
Storing 4338.82% of integrals
Total number of integrals generated =           57222
Symmetry turned back on
 Forming Active-Active B integrals...
 Contracting B matrices to form 2e integrals. 
 Forming 2J-K over o,v with exact integrals
 Calling AOints... Job number = 22, Threshold = 1.00E-12
Integral type ranges set in mkLRange.C for JobNum: 22  <1-1|1-1>
Storing 4338.82% of integrals
Total number of integrals generated =           38713
 done.

 ROHF energy found on disk: 
 E(ROHF):         -11.46851351
-11.46851351
 First 10 Diagonal elements of H: 
 11111111111_ | 1___________        -10.91158502
 11111111111_ | _1__________        -11.07577118
 11111111111_ | __1_________        -10.93371246
 11111111111_ | ___1________        -11.07525773
 11111111111_ | ____1_______        -10.99480453
 11111111111_ | _____1______        -10.92403421
 11111111111_ | ______1_____        -10.91395071
 11111111111_ | _______1____        -10.94220102
 11111111111_ | ________1___        -11.07467902
 11111111111_ | _________1__        -11.00020272
 Fill S2_CAS Matrix...  done.
 Fill H_CAS Matrix...  done.

 Diagonalizing H_CAS 
 Entering cast_sfcas_to_sfcis
 ===================================================================
 Theory           State:          Energy (au)       (eV)       <S2>
 -------------------------------------------------------------------
 SF-CAS               1:       -11.5288395510     0.0000    30.0000
 SF-CAS               2:       -11.5270700674     0.0482    30.0000
 SF-CAS               3:       -11.5266073870     0.0607    30.0000
 SF-CAS               4:       -11.5254924719     0.0911    30.0000
 SF-CAS               5:       -11.5253420749     0.0952    30.0000
 SF-CAS               6:       -11.5251863144     0.0994    30.0000
 SF-CAS               7:       -11.5248144068     0.1095    30.0000
 SF-CAS               8:       -11.5247573764     0.1111    30.0000
 SF-CAS               9:       -11.5246719655     0.1134    30.0000
 SF-CAS              10:       -11.4706695797     1.5829    30.0000
 SF-CAS              11:       -11.4703098425     1.5927    30.0000
 SF-CAS              12:       -11.4685135114     1.6416    42.0000
 SF-CAS              13:       -11.2103944533     8.6654    30.0000
 SF-CAS              14:       -11.2088771008     8.7067    30.0000
 SF-CAS              15:       -11.2060911725     8.7825    30.0000
 SF-CAS              16:       -11.2039874436     8.8398    30.0000
 SF-CAS              17:       -11.2030056599     8.8665    30.0000
 SF-CAS              18:       -11.2027537918     8.8733    30.0000
 SF-CAS              19:       -11.2018448517     8.8981    30.0000
 SF-CAS              20:       -11.2008935460     8.9240    30.0000
 SF-CAS              21:       -11.2000637277     8.9465    30.0000
 SF-CAS              22:       -11.1891232539     9.2442    30.0000
 SF-CAS              23:       -11.1853965493     9.3457    30.0000
 SF-CAS              24:       -11.1821188663     9.4348    30.0000
 SF-CAS              25:       -11.1781027920     9.5441    30.0000
 SF-CAS              26:       -11.1723710801     9.7001    30.0000
 SF-CAS              27:       -11.1717056426     9.7182    30.0000
 SF-CAS              28:       -11.1647371053     9.9078    30.0000
 SF-CAS              29:       -11.1611966056    10.0042    30.0000
 SF-CAS              30:       -11.1579692804    10.0920    30.0000
 SF-CAS              31:       -11.1535896495    10.2112    30.0000
 SF-CAS              32:       -11.1459811683    10.4182    30.0000
 SF-CAS              33:       -11.1445772131    10.4564    30.0000
 SF-CAS              34:       -11.1442778453    10.4646    30.0000
 SF-CAS              35:       -11.1385560164    10.6203    30.0000
 SF-CAS              36:       -11.1339980332    10.7443    30.0000
 SF-CAS              37:       -11.1326542516    10.7809    30.0000
 SF-CAS              38:       -11.1305546758    10.8380    30.0000
 SF-CAS              39:       -11.1274961976    10.9212    30.0000
 SF-CAS              40:       -11.0867845415    12.0290    30.0000
 SF-CAS              41:       -11.0855347486    12.0631    30.0000
 SF-CAS              42:       -11.0846230224    12.0879    30.0000
 SF-CAS              43:       -11.0836625454    12.1140    30.0000
 SF-CAS              44:       -11.0820982890    12.1566    30.0000
 SF-CAS              45:       -11.0817606183    12.1658    30.0000
 SF-CAS              46:       -11.0808851292    12.1896    30.0000
 SF-CAS              47:       -11.0799567699    12.2148    30.0000
 SF-CAS              48:       -11.0797328693    12.2209    30.0000
 SF-CAS              49:       -11.0788396954    12.2452    30.0000
 SF-CAS              50:       -11.0786270115    12.2510    30.0000
 SF-CAS              51:       -11.0782450140    12.2614    30.0000
 SF-CAS              52:       -11.0768961729    12.2981    30.0000
 SF-CAS              53:       -11.0764354244    12.3107    30.0000
 SF-CAS              54:       -11.0760674752    12.3207    30.0000
 SF-CAS              55:       -11.0750488866    12.3484    30.0000
 SF-CAS              56:       -11.0747117274    12.3576    30.0000
 SF-CAS              57:       -11.0715925504    12.4424    30.0000
 SF-CAS              58:       -10.9973718684    14.4621    30.0000
 SF-CAS              59:       -10.9946778949    14.5354    30.0000
 SF-CAS              60:       -10.9914929839    14.6221    30.0000
 SF-CAS              61:       -10.9865694368    14.7561    30.0000
 SF-CAS              62:       -10.9842034384    14.8204    30.0000
 SF-CAS              63:       -10.9792275873    14.9558    30.0000
 SF-CAS              64:       -10.9736304128    15.1082    30.0000
 SF-CAS              65:       -10.9718909200    15.1555    30.0000
 SF-CAS              66:       -10.9702802276    15.1993    30.0000
 SF-CAS              67:       -10.9669542319    15.2898    30.0000
 SF-CAS              68:       -10.9632498427    15.3906    30.0000
 SF-CAS              69:       -10.9599601817    15.4801    30.0000
 SF-CAS              70:       -10.9578207442    15.5384    30.0000
 SF-CAS              71:       -10.9554966497    15.6016    30.0000
 SF-CAS              72:       -10.9543513562    15.6328    30.0000
 SF-CAS              73:       -10.9531927460    15.6643    30.0000
 SF-CAS              74:       -10.9522423082    15.6902    30.0000
 SF-CAS              75:       -10.9502082055    15.7455    30.0000
 SF-CAS              76:       -10.9497109924    15.7590    30.0000
 SF-CAS              77:       -10.9485405849    15.7909    30.0000
 SF-CAS              78:       -10.9458614449    15.8638    30.0000
 SF-CAS              79:       -10.9438241275    15.9192    30.0000
 SF-CAS              80:       -10.9403460965    16.0139    30.0000
 SF-CAS              81:       -10.9381525344    16.0736    30.0000
 SF-CAS              82:       -10.9366603439    16.1142    30.0000
 SF-CAS              83:       -10.9358069965    16.1374    30.0000
 SF-CAS              84:       -10.9346197060    16.1697    30.0000
 SF-CAS              85:       -10.9337296571    16.1939    30.0000
 SF-CAS              86:       -10.9325232081    16.2268    30.0000
 SF-CAS              87:       -10.9311635034    16.2638    30.0000
 SF-CAS              88:       -10.9298064247    16.3007    30.0000
 SF-CAS              89:       -10.9284385998    16.3379    30.0000
 SF-CAS              90:       -10.9273800821    16.3667    30.0000
 SF-CAS              91:       -10.9267028076    16.3851    30.0000
 SF-CAS              92:       -10.9245902997    16.4426    30.0000
 SF-CAS              93:       -10.9238891267    16.4617    30.0000
 SF-CAS              94:       -10.9233509652    16.4763    30.0000
 SF-CAS              95:       -10.9207594718    16.5469    30.0000
 SF-CAS              96:       -10.9199466640    16.5690    30.0000
 SF-CAS              97:       -10.9194507530    16.5825    30.0000
 SF-CAS              98:       -10.9189682922    16.5956    30.0000
 SF-CAS              99:       -10.9169337758    16.6510    30.0000
 SF-CAS             100:       -10.9161785170    16.6715    30.0000
 SF-CAS             101:       -10.9152682733    16.6963    30.0000
 SF-CAS             102:       -10.9132495747    16.7512    30.0000
 SF-CAS             103:       -10.9110314059    16.8116    30.0000
 SF-CAS             104:       -10.9100630801    16.8379    30.0000
 SF-CAS             105:       -10.9085837401    16.8782    30.0000
 SF-CAS             106:       -10.9077562604    16.9007    30.0000
 SF-CAS             107:       -10.9071044977    16.9184    30.0000
 SF-CAS             108:       -10.9053245533    16.9669    30.0000
 SF-CAS             109:       -10.9035910651    17.0140    30.0000
 SF-CAS             110:       -10.9019515902    17.0587    30.0000
 SF-CAS             111:       -10.9014730707    17.0717    30.0000
 SF-CAS             112:       -10.8998582528    17.1156    30.0000
 SF-CAS             113:       -10.8981012248    17.1634    30.0000
 SF-CAS             114:       -10.8963715930    17.2105    30.0000
 SF-CAS             115:       -10.8921698165    17.3248    30.0000
 SF-CAS             116:       -10.8914559899    17.3443    30.0000
 SF-CAS             117:       -10.8874750367    17.4526    30.0000
 SF-CAS             118:       -10.8806855379    17.6373    30.0000
 SF-CAS             119:       -10.8783669993    17.7004    30.0000
 SF-CAS             120:       -10.8782089552    17.7047    30.0000
 SF-CAS             121:       -10.8767508433    17.7444    30.0000
 SF-CAS             122:       -10.8758772854    17.7682    30.0000
 SF-CAS             123:       -10.8751133670    17.7890    30.0000
 SF-CAS             124:       -10.8731759757    17.8417    30.0000
 SF-CAS             125:       -10.8715889576    17.8849    30.0000
 SF-CAS             126:       -10.8699262671    17.9301    30.0000
 SF-CAS             127:       -10.7216754519    21.9643    30.0000
 SF-CAS             128:       -10.7169704575    22.0923    30.0000
 SF-CAS             129:       -10.7145460845    22.1583    30.0000
 SF-CAS             130:       -10.7043126339    22.4367    30.0000
 SF-CAS             131:       -10.7018615939    22.5034    30.0000
 SF-CAS             132:       -10.6972704969    22.6284    30.0000
 SF-CAS             133:       -10.6906519998    22.8085    30.0000
 SF-CAS             134:       -10.6900403042    22.8251    30.0000
 SF-CAS             135:       -10.6837470950    22.9964    30.0000
 SF-CAS             136:       -10.6809402650    23.0727    30.0000
 SF-CAS             137:       -10.6794827454    23.1124    30.0000
 SF-CAS             138:       -10.6772224987    23.1739    30.0000
 SF-CAS             139:       -10.6731554740    23.2846    30.0000
 SF-CAS             140:       -10.6711129662    23.3402    30.0000
 SF-CAS             141:       -10.6674189576    23.4407    30.0000
 SF-CAS             142:       -10.6578213648    23.7018    30.0000
 SF-CAS             143:       -10.6555564269    23.7635    30.0000
 SF-CAS             144:       -10.6501015499    23.9119    30.0000
 ===================================================================

              Active Space Coefficients > 0.20
 -------------------------------------------------------------------
 State  1                       Configuration         Coeff.   <S^2>
 -------------------------------------------------------------------
                  11111111111_ | ___________1      -0.390385  31.000
                  1111111111_1 | __________1_       0.298054  31.000
                  111111111_11 | _________1__       0.567506  31.000
                  1111111_1111 | _______1____      -0.213879  31.000
                  11_111111111 | __1_________       0.296729  31.000
                  _11111111111 | 1___________      -0.200533  31.000
 -------------------------------------------------------------------
 State  2                       Configuration         Coeff.   <S^2>
 -------------------------------------------------------------------
                  11111111111_ | ___________1      -0.441170  31.000
                  1111111111_1 | __________1_      -0.497436  31.000
                  111111_11111 | ______1_____       0.222891  31.000
                  1111_1111111 | ____1_______      -0.278824  31.000
                  1_1111111111 | _1__________       0.363842  31.000
                  _11111111111 | 1___________       0.303959  31.000
 -------------------------------------------------------------------
 State  3                       Configuration         Coeff.   <S^2>
 -------------------------------------------------------------------
                  11111111111_ | ___________1       0.331598  31.000
                  1111111111_1 | __________1_      -0.402323  31.000
                  111111111_11 | _________1__       0.418682  31.000
                  11111111_111 | ________1___       0.260749  31.000
                  11111_111111 | _____1______      -0.377074  31.000
                  1111_1111111 | ____1_______       0.292507  31.000
                  111_11111111 | ___1________      -0.217525  31.000
 -------------------------------------------------------------------
 State  4                       Configuration         Coeff.   <S^2>
 -------------------------------------------------------------------
                  11111111111_ | ___________1       0.326460  31.000
                  111111111_11 | _________1__       0.238752  31.000
                  1111111_1111 | _______1____      -0.216081  31.000
                  11111_111111 | _____1______       0.280518  31.000
                  1111_1111111 | ____1_______      -0.293756  31.000
                  11_111111111 | __1_________       0.318518  31.000
                  1_1111111111 | _1__________      -0.488663  31.000
                  _11111111111 | 1___________       0.270571  31.000
 -------------------------------------------------------------------
 State  5                       Configuration         Coeff.   <S^2>
 -------------------------------------------------------------------
                  111111111_11 | _________1__      -0.221903  31.000
                  1111111_1111 | _______1____      -0.256882  31.000
                  11111_111111 | _____1______      -0.374413  31.000
                  1111_1111111 | ____1_______      -0.602478  31.000
                  _11111111111 | 1___________      -0.312048  31.000
 -------------------------------------------------------------------
 State  6                       Configuration         Coeff.   <S^2>
 -------------------------------------------------------------------
                  1111111111_1 | __________1_      -0.339384  31.000
                  11111111_111 | ________1___      -0.321283  31.000
                  11111_111111 | _____1______      -0.489031  31.000
                  111_11111111 | ___1________       0.308631  31.000
                  1_1111111111 | _1__________      -0.448896  31.000
 -------------------------------------------------------------------
 State  7                       Configuration         Coeff.   <S^2>
 -------------------------------------------------------------------
                  11111111_111 | ________1___       0.620372  31.000
                  111_11111111 | ___1________       0.643865  31.000
 -------------------------------------------------------------------
 State  8                       Configuration         Coeff.   <S^2>
 -------------------------------------------------------------------
                  1111111_1111 | _______1____       0.636818  31.000
                  11_111111111 | __1_________       0.604101  31.000
 -------------------------------------------------------------------
 State  9                       Configuration         Coeff.   <S^2>
 -------------------------------------------------------------------
                  111111_11111 | ______1_____       0.712517  31.000
                  _11111111111 | 1___________      -0.548808  31.000
 -------------------------------------------------------------------
 State  10                      Configuration         Coeff.   <S^2>
 -------------------------------------------------------------------
                  11111111111_ | ___________1      -0.212542  31.000
                  111111111_11 | _________1__       0.376666  31.000
                  11111111_111 | ________1___       0.239019  31.000
                  1111111_1111 | _______1____       0.417664  31.000
                  1111_1111111 | ____1_______      -0.404496  31.000
                  111_11111111 | ___1________      -0.239990  31.000
                  11_111111111 | __1_________      -0.420239  31.000
                  1_1111111111 | _1__________      -0.241125  31.000
 -------------------------------------------------------------------
 State  11                      Configuration         Coeff.   <S^2>
 -------------------------------------------------------------------
                  11111111111_ | ___________1      -0.328080  31.000
                  1111111111_1 | __________1_      -0.348146  31.000
                  11111111_111 | ________1___       0.328542  31.000
                  111111_11111 | ______1_____      -0.379236  31.000
                  11111_111111 | _____1______       0.367767  31.000
                  111_11111111 | ___1________      -0.330930  31.000
                  1_1111111111 | _1__________      -0.345284  31.000
                  _11111111111 | 1___________      -0.379494  31.000
 -------------------------------------------------------------------
 State  12                      Configuration         Coeff.   <S^2>
 -------------------------------------------------------------------
                  11111111111_ | ___________1       0.288675  31.000
                  1111111111_1 | __________1_      -0.288675  31.000
                  111111111_11 | _________1__       0.288675  31.000
                  11111111_111 | ________1___      -0.288675  31.000
                  1111111_1111 | _______1____       0.288675  31.000
                  111111_11111 | ______1_____      -0.288675  31.000
                  11111_111111 | _____1______       0.288675  31.000
                  1111_1111111 | ____1_______      -0.288675  31.000
                  111_11111111 | ___1________       0.288675  31.000
                  11_111111111 | __1_________      -0.288675  31.000
                  1_1111111111 | _1__________       0.288675  31.000
                  _11111111111 | 1___________      -0.288675  31.000
 -------------------------------------------------------------------
 State  13                      Configuration         Coeff.   <S^2>
 -------------------------------------------------------------------
                  11111111111_ | ___1________      -0.204889  30.000
                  11111111111_ | ________1___       0.206107  30.000
                  111111111_11 | __1_________      -0.255341  30.000
                  111111111_11 | ____1_______       0.280781  30.000
                  111111111_11 | _____1______      -0.206986  30.000
                  111111111_11 | _______1____       0.238311  30.000
                  111111111_11 | __________1_       0.239605  30.000
 -------------------------------------------------------------------
 State  14                      Configuration         Coeff.   <S^2>
 -------------------------------------------------------------------
                  1111111111_1 | 1___________      -0.267203  30.000
                  1111111111_1 | ___1________       0.245718  30.000
                  1111111111_1 | _____1______       0.260963  30.000
                  1111111111_1 | ______1_____      -0.268691  30.000
                  1111111111_1 | ________1___      -0.249089  30.000
                  1111111111_1 | ___________1      -0.239794  30.000
                  11111111_111 | ___1________       0.212192  30.000
                  111_11111111 | ________1___      -0.205058  30.000
                  1_1111111111 | ___________1      -0.224310  30.000
 -------------------------------------------------------------------
 State  15                      Configuration         Coeff.   <S^2>
 -------------------------------------------------------------------
                  1111_1111111 | __1_________      -0.238669  30.000
                  1111_1111111 | ____1_______      -0.210194  31.000
                  1111_1111111 | _______1____       0.303762  30.000
                  1111_1111111 | _________1__       0.348667  30.000
                  11_111111111 | _______1____       0.266168  30.000
                  11_111111111 | _________1__       0.266832  30.000
 -------------------------------------------------------------------
 State  16                      Configuration         Coeff.   <S^2>
 -------------------------------------------------------------------
                  11111111111_ | ___1________       0.229739  30.000
                  11111111111_ | ________1___      -0.237840  30.000
                  1111_1111111 | _________1__      -0.212978  30.000
                  1_1111111111 | ___1________      -0.294383  30.000
                  1_1111111111 | ________1___       0.287772  30.000
                  1_1111111111 | ___________1       0.248025  30.000
                  _11111111111 | ______1_____       0.209961  30.000
 -------------------------------------------------------------------
 State  17                      Configuration         Coeff.   <S^2>
 -------------------------------------------------------------------
                  111111111_11 | _______1____      -0.292295  30.000
                  1111111_1111 | ____1_______      -0.204993  30.000
                  1111111_1111 | _________1__      -0.355119  30.000
                  1111_1111111 | __1_________       0.255428  30.000
                  11_111111111 | ____1_______       0.359442  30.000
                  11_111111111 | _______1____       0.221130  30.000
                  11_111111111 | _________1__       0.260494  30.000
 -------------------------------------------------------------------
 State  18                      Configuration         Coeff.   <S^2>
 -------------------------------------------------------------------
                  111111_11111 | 1___________      -0.281183  30.000
                  111111_11111 | _____1______       0.395314  30.000
                  111111_11111 | ______1_____       0.243957  31.000
                  111111_11111 | __________1_      -0.407434  30.000
                  _11111111111 | 1___________      -0.200842  31.000
                  _11111111111 | _____1______      -0.350039  30.000
                  _11111111111 | __________1_       0.368629  30.000
 -------------------------------------------------------------------
 State  19                      Configuration         Coeff.   <S^2>
 -------------------------------------------------------------------
                  11111111111_ | _1__________       0.264971  30.000
                  1111111111_1 | 1___________      -0.230916  30.000
                  1111111111_1 | _____1______       0.216719  30.000
                  1111111111_1 | ______1_____      -0.223265  30.000
                  11111111_111 | ___1________      -0.208823  30.000
                  1111111_1111 | __1_________      -0.209147  30.000
                  1111111_1111 | ____1_______       0.232214  30.000
                  1111111_1111 | _________1__       0.206002  30.000
                  111_11111111 | ________1___       0.222394  30.000
 -------------------------------------------------------------------
 State  20                      Configuration         Coeff.   <S^2>
 -------------------------------------------------------------------
                  111111111_11 | __1_________       0.248063  30.000
                  1111111_1111 | ____1_______       0.239220  30.000
                  11111_111111 | 1___________      -0.290994  30.000
                  11111_111111 | ______1_____      -0.273142  30.000
                  11111_111111 | __________1_      -0.312934  30.000
                  11_111111111 | _________1__      -0.211571  30.000
 -------------------------------------------------------------------
 State  21                      Configuration         Coeff.   <S^2>
 -------------------------------------------------------------------
                  11111111_111 | _1__________      -0.379260  30.000
                  11111111_111 | ___1________       0.255584  30.000
                  11111111_111 | ________1___       0.229789  31.000
                  11111111_111 | ___________1      -0.397534  30.000
                  111_11111111 | _1__________       0.375825  30.000
                  111_11111111 | ___1________       0.237295  31.000
                  111_11111111 | ________1___       0.274180  30.000
                  111_11111111 | ___________1       0.416216  30.000
 -------------------------------------------------------------------
 State  22                      Configuration         Coeff.   <S^2>
 -------------------------------------------------------------------
                  1111111111_1 | ___1________      -0.200026  30.000
                  1111111111_1 | ________1___       0.201711  30.000
                  111111111_11 | _____1______      -0.205249  30.000
                  111111111_11 | __________1_       0.207134  30.000
                  111111111_11 | ___________1      -0.205726  30.000
 -------------------------------------------------------------------
 State  23                      Configuration         Coeff.   <S^2>
 -------------------------------------------------------------------
                  111111111_11 | ___________1      -0.239164  30.000
 -------------------------------------------------------------------
 State  24                      Configuration         Coeff.   <S^2>
 -------------------------------------------------------------------
                  1111111111_1 | __1_________       0.216247  30.000
                  1111111111_1 | ____1_______      -0.225410  30.000
                  1111111111_1 | _______1____      -0.243219  30.000
                  1111111111_1 | _________1__      -0.338063  30.000
                  11111_111111 | __1_________      -0.256282  30.000
                  11111_111111 | ____1_______       0.255894  30.000
                  11111_111111 | _______1____       0.296532  30.000
                  11111_111111 | _________1__       0.356510  30.000
 -------------------------------------------------------------------
 State  25                      Configuration         Coeff.   <S^2>
 -------------------------------------------------------------------
                  11111111111_ | __1_________       0.246415  30.000
                  11111111111_ | ____1_______      -0.303925  30.000
                  11111111111_ | _______1____      -0.253437  30.000
                  11111111111_ | _________1__      -0.344725  30.000
                  111111111_11 | _____1______      -0.221687  30.000
                  111111111_11 | __________1_       0.201295  30.000
 -------------------------------------------------------------------
 State  26                      Configuration         Coeff.   <S^2>
 -------------------------------------------------------------------
                  11111111_111 | 1___________       0.259005  30.000
                  11111111_111 | _____1______      -0.276240  30.000
                  11111111_111 | ______1_____       0.272196  30.000
                  11111111_111 | __________1_       0.394143  30.000
                  111_11111111 | 1___________      -0.246536  30.000
                  111_11111111 | _____1______       0.256315  30.000
                  111_11111111 | ______1_____      -0.238424  30.000
                  111_11111111 | __________1_      -0.345997  30.000
 -------------------------------------------------------------------
 State  27                      Configuration         Coeff.   <S^2>
 -------------------------------------------------------------------
                  1111111111_1 | ___1________      -0.232115  30.000
                  1111111111_1 | ________1___       0.236674  30.000
                  111111111_11 | ___________1       0.213615  30.000
                  11111_111111 | _________1__       0.208192  30.000
                  1111_1111111 | ___________1       0.265042  30.000
 -------------------------------------------------------------------
 State  28                      Configuration         Coeff.   <S^2>
 -------------------------------------------------------------------
                  1111111111_1 | _______1____       0.213012  30.000
                  1111111111_1 | _________1__       0.282065  30.000
                  111111_11111 | _________1__      -0.212508  30.000
 -------------------------------------------------------------------
 State  29                      Configuration         Coeff.   <S^2>
 -------------------------------------------------------------------
                  1111_1111111 | __________1_       0.206114  30.000
 -------------------------------------------------------------------
 State  30                      Configuration         Coeff.   <S^2>
 -------------------------------------------------------------------
                  11111111111_ | __________1_      -0.236277  30.000
                  1111111_1111 | ___________1      -0.214436  30.000
                  1111_1111111 | _1__________      -0.212975  30.000
                  1111_1111111 | ___1________       0.212870  30.000
                  1111_1111111 | ________1___      -0.211875  30.000
                  1111_1111111 | ___________1      -0.301821  30.000
 -------------------------------------------------------------------
 State  31                      Configuration         Coeff.   <S^2>
 -------------------------------------------------------------------
                  1111111_1111 | 1___________      -0.287468  30.000
                  1111111_1111 | _____1______       0.377667  30.000
                  1111111_1111 | ______1_____      -0.289084  30.000
                  1111111_1111 | __________1_      -0.329156  30.000
                  11_111111111 | 1___________       0.217772  30.000
                  11_111111111 | _____1______      -0.269002  30.000
                  11_111111111 | ______1_____       0.229401  30.000
                  11_111111111 | __________1_       0.280169  30.000
 -------------------------------------------------------------------
 State  32                      Configuration         Coeff.   <S^2>
 -------------------------------------------------------------------
                  11111111_111 | __1_________      -0.262386  30.000
                  11111111_111 | ____1_______       0.295686  30.000
                  11111111_111 | _______1____       0.263667  30.000
                  11111111_111 | _________1__       0.320050  30.000
                  111_11111111 | __1_________       0.225294  30.000
                  111_11111111 | ____1_______      -0.262756  30.000
                  111_11111111 | _______1____      -0.235349  30.000
                  111_11111111 | _________1__      -0.261374  30.000
 -------------------------------------------------------------------
 State  33                      Configuration         Coeff.   <S^2>
 -------------------------------------------------------------------
                  1_1111111111 | 1___________       0.259573  30.000
                  1_1111111111 | _____1______      -0.277589  30.000
                  1_1111111111 | ______1_____       0.262542  30.000
                  1_1111111111 | __________1_       0.313906  30.000
 -------------------------------------------------------------------
 State  34                      Configuration         Coeff.   <S^2>
 -------------------------------------------------------------------
                  111111_11111 | _1__________      -0.220169  30.000
                  111111_11111 | ___1________       0.253381  30.000
                  111111_11111 | ________1___      -0.271564  30.000
                  111111_11111 | ___________1      -0.270146  30.000
                  _11111111111 | _1__________       0.203223  30.000
                  _11111111111 | ___1________      -0.247047  30.000
                  _11111111111 | ________1___       0.239328  30.000
                  _11111111111 | _________1__       0.201148  30.000
                  _11111111111 | ___________1       0.257603  30.000
 -------------------------------------------------------------------
 State  35                      Configuration         Coeff.   <S^2>
 -------------------------------------------------------------------
                  1111111_1111 | _1__________      -0.228212  30.000
                  1111111_1111 | ___1________       0.240245  30.000
                  1111111_1111 | ________1___      -0.235521  30.000
                  1111111_1111 | ___________1      -0.280108  30.000
                  11111_111111 | ___1________      -0.230788  30.000
                  11111_111111 | ________1___       0.229123  30.000
                  11111_111111 | ___________1       0.217692  30.000
                  11_111111111 | ___________1       0.212170  30.000
 -------------------------------------------------------------------
 State  36                      Configuration         Coeff.   <S^2>
 -------------------------------------------------------------------
                  111111_11111 | __1_________       0.263322  30.000
                  111111_11111 | ___1________      -0.201815  30.000
                  111111_11111 | ____1_______      -0.240891  30.000
                  111111_11111 | _______1____      -0.274595  30.000
                  111111_11111 | ________1___       0.207504  30.000
                  111111_11111 | _________1__      -0.296326  30.000
                  _11111111111 | __1_________      -0.241764  30.000
                  _11111111111 | ___1________       0.222021  30.000
                  _11111111111 | ____1_______       0.225349  30.000
                  _11111111111 | _______1____       0.262864  30.000
                  _11111111111 | ________1___      -0.214298  30.000
                  _11111111111 | _________1__       0.261383  30.000
 -------------------------------------------------------------------
 State  37                      Configuration         Coeff.   <S^2>
 -------------------------------------------------------------------
                  1_1111111111 | __1_________      -0.227289  30.000
                  1_1111111111 | ____1_______       0.267718  30.000
                  1_1111111111 | _______1____       0.234108  30.000
                  1_1111111111 | _________1__       0.266574  30.000
 -------------------------------------------------------------------
 State  38                      Configuration         Coeff.   <S^2>
 -------------------------------------------------------------------
                  11111_111111 | ___1________       0.226357  30.000
                  11111_111111 | ________1___      -0.224323  30.000
                  11111_111111 | ___________1      -0.210554  30.000
                  11_111111111 | _1__________       0.220177  30.000
                  11_111111111 | ___1________      -0.223712  30.000
                  11_111111111 | ________1___       0.230117  30.000
                  11_111111111 | ___________1       0.266392  30.000
 -------------------------------------------------------------------
 State  39                      Configuration         Coeff.   <S^2>
 -------------------------------------------------------------------
                  11111111111_ | __________1_      -0.261297  30.000
                  1111_1111111 | _____1______      -0.230586  30.000
                  1111_1111111 | ______1_____       0.200212  30.000
                  1111_1111111 | __________1_       0.213912  30.000
                  11_111111111 | _____1______      -0.245355  30.000
                  11_111111111 | ______1_____       0.210421  30.000
                  11_111111111 | __________1_       0.209523  30.000
                  1_1111111111 | 1___________       0.225690  30.000
                  1_1111111111 | _____1______      -0.215340  30.000
                  1_1111111111 | ______1_____       0.224757  30.000
                  1_1111111111 | __________1_       0.263084  30.000
 -------------------------------------------------------------------
 State  40                      Configuration         Coeff.   <S^2>
 -------------------------------------------------------------------
                  111111111_11 | ____1_______       0.448186  30.000
                  111111111_11 | _______1____      -0.355728  30.000
                  1111111_1111 | __1_________      -0.245504  30.000
                  11_111111111 | ____1_______      -0.302414  30.000
                  11_111111111 | _______1____       0.365484  30.000
 -------------------------------------------------------------------
 State  41                      Configuration         Coeff.   <S^2>
 -------------------------------------------------------------------
                  11111111111_ | _1__________       0.421871  30.000
                  11111111111_ | ________1___      -0.274256  30.000
                  111111111_11 | __1_________       0.205089  30.000
                  11111111_111 | ___1________       0.258417  30.000
                  1111_1111111 | _______1____       0.258071  30.000
                  111_11111111 | _1__________       0.223002  30.000
                  111_11111111 | ________1___      -0.293626  30.000
 -------------------------------------------------------------------
 State  42                      Configuration         Coeff.   <S^2>
 -------------------------------------------------------------------
                  11111111111_ | _1__________      -0.302522  30.000
                  11111111111_ | ___1________      -0.201799  30.000
                  1111111111_1 | _____1______      -0.284466  30.000
                  111111111_11 | __1_________       0.319876  30.000
                  11111111_111 | _1__________      -0.221324  30.000
                  1111111_1111 | ____1_______      -0.233043  30.000
                  1111_1111111 | _______1____       0.203261  30.000
                  111_11111111 | _1__________      -0.203110  30.000
                  _11111111111 | ______1_____       0.219298  30.000
 -------------------------------------------------------------------
 State  43                      Configuration         Coeff.   <S^2>
 -------------------------------------------------------------------
                  11111111111_ | ___1________      -0.519866  30.000
                  11111111111_ | ________1___      -0.438483  30.000
                  11111111_111 | _1__________      -0.271890  30.000
                  1_1111111111 | ___1________       0.372992  30.000
                  1_1111111111 | ________1___       0.390737  30.000
 -------------------------------------------------------------------
 State  44                      Configuration         Coeff.   <S^2>
 -------------------------------------------------------------------
                  1111111111_1 | _____1______      -0.236546  30.000
                  111111111_11 | __1_________      -0.401384  30.000
                  111111111_11 | _______1____      -0.454665  30.000
                  111111_11111 | 1___________       0.205207  30.000
                  1111_1111111 | __1_________      -0.337183  30.000
                  1111_1111111 | _______1____      -0.285360  30.000
                  11_111111111 | ____1_______      -0.258149  30.000
 -------------------------------------------------------------------
 State  45                      Configuration         Coeff.   <S^2>
 -------------------------------------------------------------------
                  1111111111_1 | 1___________      -0.490885  30.000
                  1111111111_1 | ______1_____       0.464789  30.000
                  111111_11111 | _____1______       0.282223  30.000
                  11111_111111 | 1___________       0.365964  30.000
                  11111_111111 | ______1_____      -0.323013  30.000
                  _11111111111 | _____1______      -0.258956  30.000
 -------------------------------------------------------------------
 State  46                      Configuration         Coeff.   <S^2>
 -------------------------------------------------------------------
                  111111111_11 | ____1_______      -0.225364  30.000
                  1111111_1111 | _________1__      -0.314850  30.000
                  11111_111111 | __________1_      -0.217224  30.000
                  1111_1111111 | __1_________      -0.291417  30.000
                  1111_1111111 | _________1__      -0.437446  30.000
 -------------------------------------------------------------------
 State  47                      Configuration         Coeff.   <S^2>
 -------------------------------------------------------------------
                  11111111_111 | _1__________       0.372486  30.000
                  11111111_111 | ___1________       0.414348  30.000
                  111_11111111 | _1__________      -0.379686  30.000
                  111_11111111 | ________1___       0.380530  30.000
                  1_1111111111 | ___1________       0.400678  30.000
[...]
   697     3363.27908616    31643.91648385       12.00000000      cm-1
   698     3371.80618408    31652.44358178       12.00000000      cm-1
   699     3378.54537822    31659.18277591       12.00000000      cm-1
   700     3379.48700775    31660.12440544        6.00000000      cm-1
   701     3386.40644027    31667.04383796       20.00000000      cm-1
   702     3387.25830486    31667.89570255        6.00000000      cm-1
   703     3391.94305785    31672.58045554        2.00000000      cm-1
   704     3391.95772667    31672.59512437        6.00000000      cm-1
   705     3395.92096834    31676.55836603       12.00000000      cm-1
   706     3407.57387298    31688.21127067       12.00000000      cm-1
   707     3411.55952729    31692.19692498        6.00000000      cm-1
   708     3438.59971057    31719.23710826       12.00000000      cm-1
   709     3440.02065427    31720.65805196       20.00000000      cm-1
   710     3444.36188961    31724.99928730        6.00000000      cm-1
   711     3457.00385895    31737.64125664        6.00000000      cm-1
   712     3461.57870795    31742.21610565       12.00000000      cm-1
   713     3467.75142168    31748.38881938       12.00000000      cm-1
   714     3469.60535534    31750.24275303        6.00000000      cm-1
   715     3470.50319980    31751.14059749        2.00000000      cm-1
   716     3482.73593744    31763.37333513       -0.00000000      cm-1
   717     3483.87437561    31764.51177330       12.00000000      cm-1
   718     3485.07355211    31765.71094981       20.00000000      cm-1
   719     3490.22418040    31770.86157809        6.00000000      cm-1
   720     3495.72436505    31776.36176274        6.00000000      cm-1
   721     3495.79698793    31776.43438562        2.00000000      cm-1
   722     3507.56764754    31788.20504523       20.00000000      cm-1
   723     3511.32272438    31791.96012207       12.00000000      cm-1
   724     3512.01657745    31792.65397514        2.00000000      cm-1
   725     3515.48554294    31796.12294063        6.00000000      cm-1
   726     3522.81022927    31803.44762696       12.00000000      cm-1
   727     3526.94760169    31807.58499938        6.00000000      cm-1
   728     3532.00110939    31812.63850708        0.00000000      cm-1
   729     3532.05399538    31812.69139307        2.00000000      cm-1
   730     3535.71996159    31816.35735928       12.00000000      cm-1
   731     3543.36281931    31824.00021701       20.00000000      cm-1
   732     3545.95003179    31826.58742949        6.00000000      cm-1
   733     3549.14104915    31829.77844684       -0.00000000      cm-1
   734     3549.94629767    31830.58369536        2.00000000      cm-1
   735     3552.68481898    31833.32221667        6.00000000      cm-1
   736     3574.98187902    31855.61927672       12.00000000      cm-1
   737     3578.39874159    31859.03613929       20.00000000      cm-1
   738     3585.86917637    31866.50657406        6.00000000      cm-1
   739     3587.41443295    31868.05183064       20.00000000      cm-1
   740     3603.77025928    31884.40765698       12.00000000      cm-1
   741     3619.37722191    31900.01461960       12.00000000      cm-1
   742     3631.69725019    31912.33464788       20.00000000      cm-1
   743     3634.97079977    31915.60819746        6.00000000      cm-1
   744     3657.69065863    31938.32805633        6.00000000      cm-1
   745     3658.64999463    31939.28739232       12.00000000      cm-1
   746     3670.22343248    31950.86083017       20.00000000      cm-1
   747     3672.19140349    31952.82880118       12.00000000      cm-1
   748     3677.90989138    31958.54728907       20.00000000      cm-1
   749     3709.41096973    31990.04836742       20.00000000      cm-1
   750     3728.88628957    32009.52368726       20.00000000      cm-1
   751     3773.37303762    32054.01043531       20.00000000      cm-1
   752     3782.99447665    32063.63187435       12.00000000      cm-1
   753     3786.93854954    32067.57594724        6.00000000      cm-1
   754     3787.74213436    32068.37953206       20.00000000      cm-1
   755     3842.73162099    32123.36901869       20.00000000      cm-1
   756     3865.15848505    32145.79588274       20.00000000      cm-1
   757     3884.02521056    32164.66260826       20.00000000      cm-1
   758     8456.49202293    36737.12942063        0.00000000      cm-1
   759     8542.14807510    36822.78547280        2.00000000      cm-1
   760     8590.75362110    36871.39101879        0.00000000      cm-1
   761     8608.21271980    36888.85011749        0.00000000      cm-1
   762     8648.70454916    36929.34194685        2.00000000      cm-1
   763     8697.26597776    36977.90337545        2.00000000      cm-1
   764     8709.82400450    36990.46140219        6.00000000      cm-1
   765     8763.00006360    37043.63746129        6.00000000      cm-1
   766     8800.91969929    37081.55709699        0.00000000      cm-1
   767     8872.03973726    37152.67713496        6.00000000      cm-1
   768     8886.26491051    37166.90230820        2.00000000      cm-1
   769     8930.53873526    37211.17613296       12.00000000      cm-1
   770     8953.04307395    37233.68047165       12.00000000      cm-1
   771     8967.29142944    37247.92882713        0.00000000      cm-1
   772     9053.92803210    37334.56542980        6.00000000      cm-1
   773     9056.62324254    37337.26064023        2.00000000      cm-1
   774     9110.17924164    37390.81663934       -0.00000000      cm-1
   775     9126.42719386    37407.06459155       12.00000000      cm-1
   776     9147.45845459    37428.09585228       20.00000000      cm-1
   777     9171.44388098    37452.08127868        2.00000000      cm-1
   778     9231.67805217    37512.31544986        6.00000000      cm-1
   779     9263.21516702    37543.85256471       20.00000000      cm-1
   780     9292.35861131    37572.99600901        6.00000000      cm-1
   781     9298.34869495    37578.98609264       12.00000000      cm-1
   782     9452.45531150    37733.09270919       20.00000000      cm-1
   783     9469.89570542    37750.53310312       12.00000000      cm-1
   784     9485.90020003    37766.53759772       12.00000000      cm-1
   785     9612.25562801    37892.89302571       20.00000000      cm-1
   786     9699.96339027    37980.60078796       20.00000000      cm-1
   787     9810.84711489    38091.48451259       20.00000000      cm-1
   788    14337.76649085    42618.40388854        2.00000000      cm-1
   789    14412.52792933    42693.16532703        2.00000000      cm-1
   790    14508.91112143    42789.54851912        6.00000000      cm-1
   791    14516.98507032    42797.62246802        2.00000000      cm-1
   792    14532.87522813    42813.51262583       -0.00000000      cm-1
   793    14550.77255255    42831.40995025       -0.00000000      cm-1
   794    14569.18315573    42849.82055343        2.00000000      cm-1
   795    14583.54879988    42864.18619758        6.00000000      cm-1
   796    14602.77647048    42883.41386818        2.00000000      cm-1
   797    14630.06274083    42910.70013853        2.00000000      cm-1
   798    14647.78049514    42928.41789284       -0.00000000      cm-1
   799    14665.60948798    42946.24688567        6.00000000      cm-1
   800    14672.03837360    42952.67577129        2.00000000      cm-1
   801    14677.39279444    42958.03019213        6.00000000      cm-1
   802    14697.62783041    42978.26522811        2.00000000      cm-1
   803    14702.26112629    42982.89852398        2.00000000      cm-1
   804    14706.89705050    42987.53444819        0.00000000      cm-1
   805    14720.13921567    43000.77661337        6.00000000      cm-1
   806    14731.53788039    43012.17527809        2.00000000      cm-1
   807    14742.03927573    43022.67667342       12.00000000      cm-1
   808    14748.37616680    43029.01356449       -0.00000000      cm-1
   809    14757.76878488    43038.40618257        6.00000000      cm-1
   810    14768.20697836    43048.84437606        2.00000000      cm-1
   811    14769.95685509    43050.59425279       12.00000000      cm-1
   812    14790.80112497    43071.43852266        2.00000000      cm-1
   813    14794.91495443    43075.55235212        6.00000000      cm-1
   814    14831.32834649    43111.96574419        2.00000000      cm-1
   815    14836.28885714    43116.92625484        6.00000000      cm-1
   816    14836.66985325    43117.30725095       12.00000000      cm-1
   817    14868.02661103    43148.66400873        2.00000000      cm-1
   818    14882.50149445    43163.13889215       12.00000000      cm-1
   819    14894.23862164    43174.87601934        6.00000000      cm-1
   820    14905.39854685    43186.03594454        6.00000000      cm-1
   821    14919.85532910    43200.49272679        2.00000000      cm-1
   822    14920.10445565    43200.74185334       12.00000000      cm-1
   823    14936.07439870    43216.71179640        2.00000000      cm-1
   824    14940.15955815    43220.79695584        6.00000000      cm-1
   825    14947.67947663    43228.31687433       -0.00000000      cm-1
   826    14948.73571265    43229.37311034       12.00000000      cm-1
   827    14953.08166514    43233.71906283        6.00000000      cm-1
   828    14964.91639327    43245.55379096       12.00000000      cm-1
   829    14982.88879087    43263.52618856        2.00000000      cm-1
   830    14989.09043163    43269.72782932        6.00000000      cm-1
   831    15005.37681079    43286.01420849        6.00000000      cm-1
   832    15012.54734376    43293.18474145       -0.00000000      cm-1
   833    15038.51896284    43319.15636053        2.00000000      cm-1
   834    15038.88747501    43319.52487271       20.00000000      cm-1
   835    15075.73841837    43356.37581606        6.00000000      cm-1
   836    15094.23478479    43374.87218248        2.00000000      cm-1
   837    15100.10426869    43380.74166639       12.00000000      cm-1
   838    15116.82259198    43397.45998967        2.00000000      cm-1
   839    15121.02596614    43401.66336383       12.00000000      cm-1
   840    15126.25158187    43406.88897957        6.00000000      cm-1
   841    15131.94895656    43412.58635425       20.00000000      cm-1
   842    15163.89071261    43444.52811030       -0.00000000      cm-1
   843    15164.58979514    43445.22719283       12.00000000      cm-1
   844    15177.48729987    43458.12469756        6.00000000      cm-1
   845    15188.54949744    43469.18689513       12.00000000      cm-1
   846    15202.41698743    43483.05438513        6.00000000      cm-1
   847    15206.24586724    43486.88326494        2.00000000      cm-1
   848    15207.60861187    43488.24600956       12.00000000      cm-1
   849    15212.40795985    43493.04535754        6.00000000      cm-1
   850    15214.64002450    43495.27742219       12.00000000      cm-1
   851    15255.84649940    43536.48389710       12.00000000      cm-1
   852    15255.94272163    43536.58011932        6.00000000      cm-1
   853    15293.32290500    43573.96030269        2.00000000      cm-1
   854    15297.83457745    43578.47197514       30.00000000      cm-1
   855    15300.86453050    43581.50192819       -0.00000000      cm-1
   856    15303.18694831    43583.82434600       20.00000000      cm-1
   857    15304.82684434    43585.46424204        2.00000000      cm-1
   858    15318.09711367    43598.73451136       12.00000000      cm-1
   859    15347.20452791    43627.84192560        2.00000000      cm-1
   860    15361.01509431    43641.65249201       20.00000000      cm-1
   861    15364.93782272    43645.57522041        6.00000000      cm-1
   862    15376.32559280    43656.96299049       12.00000000      cm-1
   863    15385.92267978    43666.56007747        2.00000000      cm-1
   864    15403.60192829    43684.23932598       12.00000000      cm-1
   865    15408.38862597    43689.02602367        6.00000000      cm-1
   866    15426.63295866    43707.27035635       20.00000000      cm-1
   867    15428.72828682    43709.36568452        2.00000000      cm-1
   868    15432.04471052    43712.68210821       12.00000000      cm-1
   869    15455.60713502    43736.24453271        2.00000000      cm-1
   870    15458.53453234    43739.17193003        6.00000000      cm-1
   871    15468.61035970    43749.24775740       12.00000000      cm-1
   872    15471.07076329    43751.70816098       20.00000000      cm-1
   873    15495.85859480    43776.49599249        6.00000000      cm-1
   874    15504.09551810    43784.73291580       12.00000000      cm-1
   875    15524.11332580    43804.75072350       20.00000000      cm-1
   876    15542.72782148    43823.36521918       12.00000000      cm-1
   877    15562.31097165    43842.94836934        6.00000000      cm-1
   878    15586.87230505    43867.50970274       20.00000000      cm-1
   879    15599.33961556    43879.97701325        6.00000000      cm-1
   880    15634.15223216    43914.78962985        6.00000000      cm-1
   881    15635.72742522    43916.36482291       12.00000000      cm-1
   882    15640.44739566    43921.08479335       20.00000000      cm-1
   883    15647.82435874    43928.46175644       20.00000000      cm-1
   884    15666.81237474    43947.44977243       12.00000000      cm-1
   885    15671.76457909    43952.40197679       20.00000000      cm-1
   886    15686.19132947    43966.82872717       30.00000000      cm-1
   887    15687.08035116    43967.71774885       20.00000000      cm-1
   888    15689.04996090    43969.68735859       12.00000000      cm-1
   889    15751.50874626    44032.14614395       12.00000000      cm-1
   890    15773.63302626    44054.27042395       20.00000000      cm-1
   891    15787.73793205    44068.37532974       30.00000000      cm-1
   892    15794.19807714    44074.83547483       20.00000000      cm-1
   893    15826.20229266    44106.83969036       20.00000000      cm-1
   894    15864.98026236    44145.61766006       12.00000000      cm-1
   895    15882.05637692    44162.69377461       20.00000000      cm-1
   896    15910.81466965    44191.45206735       12.00000000      cm-1
   897    15941.55456334    44222.19196104       20.00000000      cm-1
   898    15967.74286313    44248.38026083       20.00000000      cm-1
   899    16032.43350339    44313.07090108       30.00000000      cm-1
   900    16065.44184461    44346.07924230       30.00000000      cm-1
   901    16099.62731564    44380.26471334       30.00000000      cm-1
   902    16181.25160039    44461.88899809       30.00000000      cm-1
   903    16193.76833473    44474.40573242       30.00000000      cm-1
   904    16212.51386254    44493.15126024       30.00000000      cm-1
   905    26980.66998629    55261.30738399        0.00000000      cm-1
   906    26991.09530539    55271.73270308        2.00000000      cm-1
   907    27054.90956542    55335.54696311        6.00000000      cm-1
   908    27062.61876456    55343.25616226        2.00000000      cm-1
   909    27107.24932477    55387.88672246        2.00000000      cm-1
   910    27160.93643960    55441.57383729        6.00000000      cm-1
   911    27225.81047438    55506.44787207        6.00000000      cm-1
   912    27262.66707320    55543.30447089        6.00000000      cm-1
   913    27287.59366139    55568.23105909        6.00000000      cm-1
   914    27316.14469327    55596.78209096       12.00000000      cm-1
   915    27412.42595161    55693.06334930       12.00000000      cm-1
   916    27473.33303297    55753.97043066       12.00000000      cm-1
   917    27514.79003577    55795.42743347       12.00000000      cm-1
   918    27654.96207617    55935.59947387       20.00000000      cm-1
   919    27741.95567128    56022.59306897       20.00000000      cm-1
   920    27801.16325700    56081.80065469       20.00000000      cm-1
   921    28064.66749392    56345.30489161       30.00000000      cm-1
   922    28143.62069136    56424.25808905       30.00000000      cm-1
   923    28537.86978365    56818.50718134       42.00000000      cm-1
 Analysis of SCF Wavefunction

 --------------------------------------------------------------

                    Orbital Energies (a.u.)
 --------------------------------------------------------------

 Alpha MOs
 -- Occupied --
 -0.914  -0.914  -0.515  -0.515  -0.517  -0.518  -0.516  -0.516
 -0.516  -0.515  -0.515  -0.518  -0.515  -0.517
 -- Virtual --
  1.114   1.044   1.041   1.042   1.020   1.121   0.994   0.812
  1.369   0.974   0.951   1.037   0.967   0.978

 Beta MOs
 -- Occupied --
 -0.914  -0.914
 -- Virtual --
  0.148   0.149   0.150   0.151   0.147   0.147   0.147   0.149
  0.148   0.149   0.148   0.148   1.284   1.194   1.181   1.205
  1.185   1.231   1.148   0.998   1.381   1.132   1.114   1.176
  1.138   1.145
 --------------------------------------------------------------

          Ground-State Mulliken Net Atomic Charges

     Atom                 Charge (a.u.)
  ----------------------------------------
      1 H                     0.000051
      2 H                     0.000047
      3 H                    -0.000019
      4 H                    -0.000001
      5 H                    -0.000040
      6 H                     0.000037
      7 H                     0.000034
      8 H                    -0.000051
      9 H                     0.000072
     10 H                     0.000047
     11 H                    -0.000092
     12 H                    -0.000086
     13 He                    0.000000
     14 He                   -0.000000
  ----------------------------------------
  Sum of atomic charges =     0.000000

 -----------------------------------------------------------------
                    Cartesian Multipole Moments
 -----------------------------------------------------------------
    Charge (ESU x 10^10)
                 0.0000
    Dipole Moment (Debye)
         X       0.0001      Y      -0.0005      Z       0.0004
       Tot       0.0006
    Quadrupole Moments (Debye-Ang)
        XX     -19.6817     XY       0.0200     YY     -19.6440
        XZ      -0.0013     YZ      -0.0327     ZZ     -19.5105
    Octopole Moments (Debye-Ang^2)
       XXX     -19.5555    XXY     -32.1452    XYY      -4.8699
       YYY     -99.8115    XXZ     -22.8865    XYZ      -0.0190
       YYZ     -23.8857    XZZ      -4.1046    YZZ     -32.1747
       ZZZ     -70.7111
    Hexadecapole Moments (Debye-Ang^3)
      XXXX   -1643.2633   XXXY      -8.4477   XXYY    -551.4322
      XYYY      -7.7906   YYYY   -1654.4881   XXXZ       3.4426
      XXYZ    -213.6700   XYYZ       0.0886   YYYZ    -649.0876
      XXZZ    -491.0227   XYZZ      -2.4493   YYZZ    -501.0901
      XZZZ       4.4651   YZZZ    -644.5226   ZZZZ   -1318.2336
 -----------------------------------------------------------------
 JobOver = TRUE
Archival summary:
1\1\sinatra\SP\ROProcedureUnspecified\6-31G*\e212()\nmayhall\SunMar2610:46:122017SunMar2610:46:122017\0\\#,ROProcedureUnspecified,6-31G*,\\0,13\H\H,1,1.81065\H,1,1.81086,2,60.0452\H,2,1.81131,1,60.0237,3,-70.5123,0\H,1,2.70196,2,128.785,3,-29.6714,0\H,5,1.81039,1,162.568,2,-125.022,0\H,5,1.81121,1,115.886,2,162.914,0\H,7,1.8112,5,60.0005,1,90.2209,0\H,1,2.74615,2,123.078,3,140.571,0\H,9,1.8111,1,130.703,2,-175.903,0\H,10,1.8108,9,60.0291,1,-16.4918,0\H,9,1.81133,1,106.947,2,119.346,0\He,2,14.5924,1,125.789,3,67.2233,0\He,2,14.8215,1,125.906,3,-178.746,0\\HF=-11.4685135\\@

 Total job time:  0.52s(wall), 0.52s(cpu) 
 Sun Mar 26 10:46:12 2017

        *************************************************************
        *                                                           *
        *  Thank you very much for using Q-Chem.  Have a nice day.  *
        *                                                           *
        *************************************************************


*** MISSION COMPLETED -- STARFLEET OUT ***

