                  Welcome to Q-Chem
     A Quantum Leap Into The Future Of Chemistry


 Q-Chem 4.3, Q-Chem, Inc., Pleasanton, CA (2015)

 Y. Shao,  Z. Gan,  E. Epifanovsky,  A. T. B. Gilbert,  M. Wormit,  
 J. Kussmann,  A. W. Lange,  A. Behn,  J. Deng,  X. Feng,  D. Ghosh,  
 M. Goldey,  P. R. Horn,  L. D. Jacobson,  I. Kaliman,  R. Z. Khaliullin,  
 T. Kus,  A. Landau,  J. Liu,  E. I. Proynov,  Y. M. Rhee,  R. M. Richard,  
 M. A. Rohrdanz,  R. P. Steele,  E. J. Sundstrom,  H. L. Woodcock III,  
 P. M. Zimmerman,  D. Zuev,  B. Albrecht,  E. Alguire,  B. Austin,  
 S. A. Baeppler,  G. J. O. Beran,  Y. A. Bernard,  E. Berquist,  
 K. Brandhorst,  K. B. Bravaya,  S. T. Brown,  D. Casanova,  C.-M. Chang,  
 Y. Chen,  S. H. Chien,  K. D. Closser,  D. L. Crittenden,  M. Diedenhofen,  
 R. A. DiStasio Jr.,  H. Do,  A. D. Dutoi,  R. G. Edgar,  P.-T. Fang,  
 S. Fatehi,  Q. Feng,  L. Fusti-Molnar,  A. Ghysels,  
 A. Golubeva-Zadorozhnaya,  J. Gomes,  A. Gunina,  M. W. D. Hanson-Heine,  
 P. H. P. Harbach,  A. W. Hauser,  E. G. Hohenstein,  Z. C. Holden,  K. Hui,  
 T.-C. Jagau,  H. Ji,  B. Kaduk,  K. Khistyaev,  Jaehoon Kim,  Jihan Kim,  
 R. A. King,  P. Klunzinger,  D. Kosenkov,  T. Kowalczyk,  C. M. Krauter,  
 K. U. Lao,  A. Laurent,  K. V. Lawler,  S. Lehtola,  S. V. Levchenko,  
 C. Y. Lin,  Y.-S. Lin,  F. Liu,  E. Livshits,  R. C. Lochan,  A. Luenser,  
 P. Manohar,  S. F. Manzer,  S.-P. Mao,  N. Mardirossian,  A. V. Marenich,  
 L. A. Martinez-Martinez,  S. A. Maurer,  N. J. Mayhall,  K. Nanda,  
 C. M. Oana,  R. Olivares-Amaya,  D. P. O'Neill,  J. A. Parkhill,  
 T. M. Perrine,  R. Peverati,  P. A. Pieniazek,  F. Plasser,  A. Prociuk,  
 D. R. Rehn,  E. Rosta,  N. J. Russ,  N. Sergueev,  S. M. Sharada,  
 S. Sharma,  D. W. Small,  A. Sodt,  T. Stauch,  T. Stein,  D. Stuck,  
 Y.-C. Su,  A. J. W. Thom,  T. Tsuchimochi,  L. Vogt,  O. Vydrov,  T. Wang,  
 M. A. Watson,  J. Wenzel,  A. White,  C. F. Williams,  V. Vanovschi,  
 S. Yeganeh,  S. R. Yost,  Z.-Q. You,  I. Y. Zhang,  X. Zhang,  Y. Zhao,  
 B. R. Brooks,  G. K. L. Chan,  D. M. Chipman,  C. J. Cramer,  
 W. A. Goddard III,  M. S. Gordon,  W. J. Hehre,  A. Klamt,  
 H. F. Schaefer III,  M. W. Schmidt,  C. D. Sherrill,  D. G. Truhlar,  
 A. Warshel,  X. Xu,  A. Aspuru-Guzik,  R. Baer,  A. T. Bell,  N. A. Besley,  
 J.-D. Chai,  A. Dreuw,  B. D. Dunietz,  T. R. Furlani,  S. R. Gwaltney,  
 C.-P. Hsu,  Y. Jung,  J. Kong,  D. S. Lambrecht,  W. Liang,  C. Ochsenfeld,  
 V. A. Rassolov,  L. V. Slipchenko,  J. E. Subotnik,  T. Van Voorhis,  
 J. M. Herbert,  A. I. Krylov,  P. M. W. Gill,  M. Head-Gordon

 Contributors to earlier versions of Q-Chem not listed above: 
 R. D. Adamson,  J. Baker,  E. F. C. Byrd,  A. K. Chakraborty,  C.-L. Cheng,  
 H. Dachsel,  R. J. Doerksen,  G. Hawkins,  A. Heyden,  S. Hirata,  
 G. Kedziora,  F. J. Keil,  C. Kelley,  P. P. Korambath,  W. Kurlancheek,  
 A. M. Lee,  M. S. Lee,  D. Liotard,  I. Lotan,  P. E. Maslen,  N. Nair,  
 D. Neuhauser,  R. Olson,  B. Peters,  J. Ritchie,  N. E. Schultz,  
 N. Shenvi,  A. C. Simmonett,  K. S. Thanthiriwatte,  Q. Wu,  W. Zhang

 Please cite Q-Chem as follows:
 Y. Shao et al., Mol. Phys. 113, 184-215 (2015)
 DOI: 10.1080/00268976.2014.952696

 Q-Chem 4.3.0 for Intel X86 EM64T Linux

 Parts of Q-Chem use Armadillo 5.200.1 (Boston Tea Smuggler).
 http://arma.sourceforge.net/

 Q-Chem begins on Wed Mar 29 12:48:38 2017  


Host: 0

     Scratch files written to /home/nmayhall/scratch_qchem/shrink3//
 Dec1416 |home|nmayhall|qcSoftware|qchem|qchem.svn-casman|libmdc|qstr_RNUM -1
 Using version located at /home/nmayhall/qcSoftware/qchem/qchem.svn-casman/bin/qchem


Total Memory Limit in MB = 2000
Mega-Array Size in MB = 62

Checking the input file for inconsistencies... 	...done.

 Q-Chem warning in module /home/nmayhall/qcSoftware/qchem/qchem.svn-casman/forms1/BasisType.C, line 1452:

 You are not using the predefined 5D/6D in this basis set.

Finally everything over in PARseQInput

--------------------------------------------------------------
User input:
--------------------------------------------------------------
$rem
	exchange 		hf
	unrestricted		1
	basis			6-31g*	
	aux_basis		rimp2-vdz
	scf_guess		core	
	scf_convergence		8
	scf_max_cycles		200
	purecart		1111

	symmetry		0
	sym_ignore		1

	!correlation		sf-cas
	!cas_n_spin_flip		1
	!cas_local		1
	gui			2
$end

$development
	1sf_heis_projection	1
$end

$molecule
0 25
H	-2.07581292	2.45872746	-0.20267658
H	-1.88277372	1.19825001	0.13536801
H	-3.05849034	1.58451795	-0.32182434
H	-2.65657077	1.96706799	0.87738795
H	0.6647022	-0.50360778	-0.04002939
H	-0.56338578	-0.02541294	-0.10044162
H	-0.33275205	-1.16881299	0.51508953
H	-0.23938902	-1.09537353	-0.80067528
H	0.78100686	1.5126021	0.23914845
H	-0.12821652	1.80750447	-0.67124133
H	0.80818398	2.68616088	-0.36579033
H	-0.14914611	2.41266924	0.50151555
H	-2.29797567	-1.32775686	-0.53448093
H	-2.39944518	-0.66617478	0.60349536
H	-3.32547201	-1.5445323	0.2662308
H	-3.22862436	-0.40217472	-0.38922039
H	-0.03658122	0.64036818	1.78259454
H	-0.98625681	1.52987211	2.0087595
H	-0.70551891	0.61701831	2.92071663
H	-1.30240953	0.26582256	1.79688294
H	-0.6248988	0.52295544	-2.08191465
H	-1.83105846	0.24617601	-1.62263007
H	-1.65788451	0.50802552	-2.90472237
H	-1.53927621	1.47335274	-2.01117978
He	10	10	10	
He	-10	10	10	
$end


--------------------------------------------------------------
 ----------------------------------------------------------------
             Standard Nuclear Orientation (Angstroms)
    I     Atom           X                Y                Z
 ----------------------------------------------------------------
    1      H      -2.0758129200     2.4587274600    -0.2026765800
    2      H      -1.8827737200     1.1982500100     0.1353680100
    3      H      -3.0584903400     1.5845179500    -0.3218243400
    4      H      -2.6565707700     1.9670679900     0.8773879500
    5      H       0.6647022000    -0.5036077800    -0.0400293900
    6      H      -0.5633857800    -0.0254129400    -0.1004416200
    7      H      -0.3327520500    -1.1688129900     0.5150895300
    8      H      -0.2393890200    -1.0953735300    -0.8006752800
    9      H       0.7810068600     1.5126021000     0.2391484500
   10      H      -0.1282165200     1.8075044700    -0.6712413300
   11      H       0.8081839800     2.6861608800    -0.3657903300
   12      H      -0.1491461100     2.4126692400     0.5015155500
   13      H      -2.2979756700    -1.3277568600    -0.5344809300
   14      H      -2.3994451800    -0.6661747800     0.6034953600
   15      H      -3.3254720100    -1.5445323000     0.2662308000
   16      H      -3.2286243600    -0.4021747200    -0.3892203900
   17      H      -0.0365812200     0.6403681800     1.7825945400
   18      H      -0.9862568100     1.5298721100     2.0087595000
   19      H      -0.7055189100     0.6170183100     2.9207166300
   20      H      -1.3024095300     0.2658225600     1.7968829400
   21      H      -0.6248988000     0.5229554400    -2.0819146500
   22      H      -1.8310584600     0.2461760100    -1.6226300700
   23      H      -1.6578845100     0.5080255200    -2.9047223700
   24      H      -1.5392762100     1.4733527400    -2.0111797800
   25      He     10.0000000000    10.0000000000    10.0000000000
   26      He    -10.0000000000    10.0000000000    10.0000000000
 ----------------------------------------------------------------
 Nuclear Repulsion Energy =    59.1413378918 hartrees
 There are       26 alpha and        2 beta electrons
 Requested basis set is 6-31G(d)
 There are 52 shells and 52 basis functions

Total QAlloc Memory Limit   2000 MB
Mega-Array Size        61 MB
MEM_STATIC part        62 MB

finished with qalloc call

 Q-Chem warning in module /home/nmayhall/qcSoftware/qchem/qchem.svn-casman/forms1/BasisType.C, line 1375:

 SAD: How to set up polarization functions for non-Pople basis?

 Requested basis set is rimp2-VDZ
 There are 154 shells and 354 basis functions
 Job number = 2, Threshold = 1.00E-11
Integral type ranges set in mkLRange.C for JobNum: 2  <1-7|1-7>
Symmetry turned off temporarily
 Using the largest function pair in Schwarz integrals
Total number of integrals generated =            2578
Symmetry turned back on
 A cutoff of  1.0D-11 yielded   1168 shell pairs
 There are      1168 function pairs
 Job number = 11, Threshold = 1.00E-11
Integral type ranges set in mkLRange.C for JobNum: 11  <1-1|8-8>

 -------------------------------------------------------
 OpenMP Integral Computing Module                       
 Release: version 1.0, May 2013, Q-Chem Inc. Pittsburgh 
 -------------------------------------------------------
 Integral Job Info:
 Integral job number is                      11
 Integral operator is                         1
 short-range coefficients                     0
 long-range coefficients              100000000
 Omega coefficients                           0
 if combine SR and LR in K                    0
 Integral screening is                        0
 Integral computing path is                   2
 max size of driver memory is            800000
 size of driver memory is                 11780
 size of scratch memory is               800000
 max col of scratch BK array                289
 max len of scratch array in speh3            1
 max len of scratch index in speh4            2
 max int batch size is                      520
 min int batch size is                       52
 fixed nKL is                               520
 max L of basis functions is                  0
 order of int derivative is                   0
 number of shells is                         52
 number of basis is                          52
 number of cartesian basis is                52
 number of contracted shell pairs          1168
 number of primitive shell pairs           3406
 maxK2 (contraction) of shell pair            9
 max number of K2 of shell pair               1
 max number of CS2 of shell pair            594
 max number of PS2 of shell pair           1782
 mem total for path MDJ                   12144
 -------------------------------------------------------
 Smallest overlap matrix eigenvalue = 7.37E-02
 Multipole matrices computed through 2nd order

  Scale SEOQF with 1.000000e-02/1.000000e-02/1.000000e-02

 Standard Electronic Orientation quadrupole field applied
 Nucleus-field energy     =     0.0000000001 hartrees
GuessMan:  IGuess = 1
 Guess MOs from core Hamiltonian diagonalization
scfman initvdwdat 
 An unrestricted Hartree-Fock SCF calculation will be
 performed using Pulay DIIS extrapolation
 SCF converges when DIIS error is below 1.0E-08
Finding J and K together
 Job number = 22, Threshold = 1.00E-11
Integral type ranges set in mkLRange.C for JobNum: 22  <1-1|1-1>
Storing 266.32% of integrals
Total number of integrals generated =          661004
 MakeJK  time:  CPU       0.19 s  wall       0.19 s
Fock build time:  0.19 s (CPU) 0.19 s (wall)
DIIS Errors:  Max 4.15E-01 RMS 4.81E-02

Current DIIS subspace size = 1
REM_GRID_RESTART_DIIS = 0

 ---------------------------------------
  Cycle       Energy         DIIS Error
 ---------------------------------------
    1      -3.9118053451      4.81E-02  00000
Finding J and K together
 Job number = 22, Threshold = 1.00E-11
Integral type ranges set in mkLRange.C for JobNum: 22  <1-1|1-1>
Storing 266.32% of integrals
Reusing in-core integrals buffer for job 22
 MakeJK  time:  CPU       0.03 s  wall       0.03 s
Fock build time:  0.03 s (CPU) 0.03 s (wall)
DIIS Errors:  Max 4.99E-01 RMS 2.34E-02

Current DIIS subspace size = 2
REM_GRID_RESTART_DIIS = 0

    2     -11.5186268976      2.34E-02  00000
Finding J and K together
 Job number = 22, Threshold = 1.00E-11
Integral type ranges set in mkLRange.C for JobNum: 22  <1-1|1-1>
Storing 266.32% of integrals
Reusing in-core integrals buffer for job 22
 MakeJK  time:  CPU       0.03 s  wall       0.03 s
Fock build time:  0.03 s (CPU) 0.03 s (wall)
DIIS Errors:  Max 4.61E-02 RMS 3.22E-03

Current DIIS subspace size = 3
REM_GRID_RESTART_DIIS = 0

    3     -15.9408189016      3.22E-03  00000
Finding J and K together
 Job number = 22, Threshold = 1.00E-11
Integral type ranges set in mkLRange.C for JobNum: 22  <1-1|1-1>
Storing 266.32% of integrals
Reusing in-core integrals buffer for job 22
 MakeJK  time:  CPU       0.03 s  wall       0.03 s
Fock build time:  0.03 s (CPU) 0.03 s (wall)
DIIS Errors:  Max 1.95E-02 RMS 1.18E-03

Current DIIS subspace size = 4
REM_GRID_RESTART_DIIS = 0

    4     -15.9524210307      1.18E-03  00000
Finding J and K together
 Job number = 22, Threshold = 1.00E-11
Integral type ranges set in mkLRange.C for JobNum: 22  <1-1|1-1>
Storing 266.32% of integrals
Reusing in-core integrals buffer for job 22
 MakeJK  time:  CPU       0.03 s  wall       0.03 s
Fock build time:  0.03 s (CPU) 0.03 s (wall)
DIIS Errors:  Max 8.00E-03 RMS 3.76E-04

Current DIIS subspace size = 5
REM_GRID_RESTART_DIIS = 0

    5     -15.9537446835      3.76E-04  00000
Finding J and K together
 Job number = 22, Threshold = 1.00E-11
Integral type ranges set in mkLRange.C for JobNum: 22  <1-1|1-1>
Storing 266.32% of integrals
Reusing in-core integrals buffer for job 22
 MakeJK  time:  CPU       0.03 s  wall       0.03 s
Fock build time:  0.03 s (CPU) 0.03 s (wall)
DIIS Errors:  Max 1.14E-03 RMS 5.67E-05

Current DIIS subspace size = 6
REM_GRID_RESTART_DIIS = 0

    6     -15.9538785607      5.67E-05  00000
Finding J and K together
 Job number = 22, Threshold = 1.00E-11
Integral type ranges set in mkLRange.C for JobNum: 22  <1-1|1-1>
Storing 266.32% of integrals
Reusing in-core integrals buffer for job 22
 MakeJK  time:  CPU       0.03 s  wall       0.03 s
Fock build time:  0.04 s (CPU) 0.03 s (wall)
DIIS Errors:  Max 1.56E-05 RMS 1.83E-06

Current DIIS subspace size = 7
REM_GRID_RESTART_DIIS = 0

    7     -15.9538831602      1.83E-06  00000
Finding J and K together
 Job number = 22, Threshold = 1.00E-11
Integral type ranges set in mkLRange.C for JobNum: 22  <1-1|1-1>
Storing 266.32% of integrals
Reusing in-core integrals buffer for job 22
 MakeJK  time:  CPU       0.03 s  wall       0.03 s
Fock build time:  0.03 s (CPU) 0.03 s (wall)
DIIS Errors:  Max 4.06E-06 RMS 2.54E-07

Current DIIS subspace size = 8
REM_GRID_RESTART_DIIS = 0

    8     -15.9538831924      2.54E-07  00000
Finding J and K together
 Job number = 22, Threshold = 1.00E-11
Integral type ranges set in mkLRange.C for JobNum: 22  <1-1|1-1>
Storing 266.32% of integrals
Reusing in-core integrals buffer for job 22
 MakeJK  time:  CPU       0.03 s  wall       0.03 s
Fock build time:  0.03 s (CPU) 0.03 s (wall)
DIIS Errors:  Max 2.07E-07 RMS 1.72E-08

Current DIIS subspace size = 9
REM_GRID_RESTART_DIIS = 0

    9     -15.9538831970      1.72E-08  00000
Finding J and K together
 Job number = 22, Threshold = 1.00E-11
Integral type ranges set in mkLRange.C for JobNum: 22  <1-1|1-1>
Storing 266.32% of integrals
Reusing in-core integrals buffer for job 22
 MakeJK  time:  CPU       0.04 s  wall       0.03 s
Fock build time:  0.04 s (CPU) 0.03 s (wall)
DIIS Errors:  Max 3.35E-08 RMS 1.63E-09

Current DIIS subspace size = 10
REM_GRID_RESTART_DIIS = 0

   10     -15.9538831974      1.63E-09  00000 Convergence criterion met
 ---------------------------------------
 <S^2> = 156.0000
 SCF time:  CPU 0.50 s  wall 0.51 s
 SCF   energy in the final basis set = -15.9538831974
 Total energy in the final basis set = -15.9538831974
Symmetry turned off temporarily
 Analysis of SCF Wavefunction

 --------------------------------------------------------------

                    Orbital Energies (a.u.)
 --------------------------------------------------------------

 Alpha MOs
 -- Occupied --
 -1.054  -0.961  -0.956  -0.945  -0.914  -0.914  -0.911  -0.900
 -0.611  -0.566  -0.556  -0.539  -0.524  -0.516  -0.482  -0.442
 -0.431  -0.424  -0.413  -0.410  -0.402  -0.392  -0.381  -0.370
 -0.359  -0.356
 -- Virtual --
  0.773   0.814   0.821   0.831   0.844   0.859   0.877   0.881
  0.899   0.909   0.915   0.924   0.931   0.940   0.955   0.986
  1.010   1.023   1.034   1.255   1.304   1.346   1.368   1.374
  1.400   1.400

 Beta MOs
 -- Occupied --
 -0.914  -0.914
 -- Virtual --
 -0.255  -0.172  -0.164  -0.156  -0.118  -0.106   0.067   0.088
  0.095   0.115   0.118   0.126   0.175   0.213   0.222   0.228
  0.239   0.243   0.245   0.257   0.268   0.290   0.306   0.310
  1.025   1.052   1.061   1.064   1.090   1.101   1.120   1.130
  1.134   1.154   1.158   1.164   1.173   1.183   1.187   1.206
  1.221   1.239   1.281   1.400   1.400   1.436   1.480   1.525
  1.548   1.565
 --------------------------------------------------------------

          Ground-State Mulliken Net Atomic Charges

     Atom                 Charge (a.u.)    Spin (a.u.)
  --------------------------------------------------------
      1 H                    -0.001068       1.001068
      2 H                     0.005867       0.994133
      3 H                    -0.002026       1.002026
      4 H                    -0.004528       1.004528
      5 H                    -0.003668       1.003668
      6 H                     0.005901       0.994099
      7 H                    -0.002123       1.002123
      8 H                    -0.001947       1.001947
      9 H                     0.001860       0.998140
     10 H                     0.004041       0.995959
     11 H                    -0.008707       1.008707
     12 H                     0.001831       0.998169
     13 H                     0.002330       0.997670
     14 H                     0.005239       0.994761
     15 H                    -0.007678       1.007678
     16 H                     0.003110       0.996890
     17 H                     0.001067       0.998933
     18 H                     0.002626       0.997374
     19 H                    -0.007885       1.007885
     20 H                     0.005468       0.994532
     21 H                     0.003139       0.996861
     22 H                     0.003358       0.996642
     23 H                    -0.007892       1.007892
     24 H                     0.001687       0.998313
     25 He                    0.000000       0.000000
     26 He                    0.000000      -0.000000
  --------------------------------------------------------
  Sum of atomic charges =    -0.000000
  Sum of spin   charges =    24.000000

 -----------------------------------------------------------------
                    Cartesian Multipole Moments
 -----------------------------------------------------------------
    Charge (ESU x 10^10)
                -0.0000
    Dipole Moment (Debye)
         X      -0.0269      Y      -0.0093      Z      -0.0074
       Tot       0.0294
    Quadrupole Moments (Debye-Ang)
        XX     -43.0518     XY      -0.8303     YY     -43.2943
        XZ      -0.1993     YZ       0.1372     ZZ     -43.7028
    Octopole Moments (Debye-Ang^2)
       XXX     146.3226    XXY     -43.1169    XYY      49.3477
       YYY    -139.1023    XXZ     -18.8671    XYZ       0.1347
       YYZ     -19.3994    XZZ      50.6553    YZZ     -45.3311
       ZZZ     -62.3077
    Hexadecapole Moments (Debye-Ang^3)
      XXXX   -2011.7381   XXXY      32.6899   XXYY    -638.9872
      XYYY      37.2966   YYYY   -1759.1652   XXXZ     -23.5453
      XXYZ    -204.8225   XYYZ      -0.0607   YYYZ    -626.2171
      XXZZ    -612.3296   XYZZ      21.6438   YYZZ    -569.4308
      XZZZ     -30.9700   YZZZ    -634.9393   ZZZZ   -1756.2895
 -----------------------------------------------------------------
 JobOver = TRUE
Archival summary:
1\1\sinatra\SP\HF\6-31G*\e224(Û)\nmayhall\WedMar2912:48:392017WedMar2912:48:392017\0\\#,HF,6-31G*,\\0,25\H\H,1,1.31888\H,1,1.31913,2,60.1059\H,1,1.31929,2,60.1063,3,70.5779,0\H,1,1.81487,2,130.619,3,-135.572,0\H,5,1.31922,1,135.832,2,-163.289,0\H,5,1.31926,1,153.178,2,-46.5163,0\H,5,1.31929,1,143.154,2,96.3597,0\H,1,1.96844,2,154.68,3,105.089,0\H,9,1.31986,1,99.5424,2,67.077,0\H,9,1.31992,1,135.202,2,10.4233,0\H,9,1.32002,1,75.1825,2,11.7126,0\H,10,1.93697,9,119.295,1,16.0119,0\H,13,1.3201,10,114.521,9,-10.1986,0\H,14,1.32008,13,60.0216,10,-134.581,0\H,14,1.32016,13,60.0287,10,-64.0577,0\H,14,1.86983,13,136.073,10,60.081,0\H,17,1.32012,14,138.485,13,1.57655,0\H,17,1.32015,14,154.99,13,131.255,0\H,17,1.32022,14,139.009,13,-97.0871,0\H,20,1.96961,17,95.3927,14,66.9462,0\H,21,1.31988,20,163.342,17,-1.99129,0\H,21,1.31997,20,136.572,17,173.248,0\H,21,1.31999,20,125.198,17,-105.025,0\He,7,14.2013,5,173.852,1,-15.7639,0\He,11,15.6662,9,151.66,1,41.1167,0\\HF=-15.9538832\\@

 Total job time:  0.57s(wall), 0.58s(cpu) 
 Wed Mar 29 12:48:39 2017

        *************************************************************
        *                                                           *
        *  Thank you very much for using Q-Chem.  Have a nice day.  *
        *                                                           *
        *************************************************************


*** MISSION COMPLETED -- STARFLEET OUT ***

 
User input: 2 of 2 
 
                  Welcome to Q-Chem
     A Quantum Leap Into The Future Of Chemistry


 Q-Chem 4.3, Q-Chem, Inc., Pleasanton, CA (2015)

 Y. Shao,  Z. Gan,  E. Epifanovsky,  A. T. B. Gilbert,  M. Wormit,  
 J. Kussmann,  A. W. Lange,  A. Behn,  J. Deng,  X. Feng,  D. Ghosh,  
 M. Goldey,  P. R. Horn,  L. D. Jacobson,  I. Kaliman,  R. Z. Khaliullin,  
 T. Kus,  A. Landau,  J. Liu,  E. I. Proynov,  Y. M. Rhee,  R. M. Richard,  
 M. A. Rohrdanz,  R. P. Steele,  E. J. Sundstrom,  H. L. Woodcock III,  
 P. M. Zimmerman,  D. Zuev,  B. Albrecht,  E. Alguire,  B. Austin,  
 S. A. Baeppler,  G. J. O. Beran,  Y. A. Bernard,  E. Berquist,  
 K. Brandhorst,  K. B. Bravaya,  S. T. Brown,  D. Casanova,  C.-M. Chang,  
 Y. Chen,  S. H. Chien,  K. D. Closser,  D. L. Crittenden,  M. Diedenhofen,  
 R. A. DiStasio Jr.,  H. Do,  A. D. Dutoi,  R. G. Edgar,  P.-T. Fang,  
 S. Fatehi,  Q. Feng,  L. Fusti-Molnar,  A. Ghysels,  
 A. Golubeva-Zadorozhnaya,  J. Gomes,  A. Gunina,  M. W. D. Hanson-Heine,  
 P. H. P. Harbach,  A. W. Hauser,  E. G. Hohenstein,  Z. C. Holden,  K. Hui,  
 T.-C. Jagau,  H. Ji,  B. Kaduk,  K. Khistyaev,  Jaehoon Kim,  Jihan Kim,  
 R. A. King,  P. Klunzinger,  D. Kosenkov,  T. Kowalczyk,  C. M. Krauter,  
 K. U. Lao,  A. Laurent,  K. V. Lawler,  S. Lehtola,  S. V. Levchenko,  
 C. Y. Lin,  Y.-S. Lin,  F. Liu,  E. Livshits,  R. C. Lochan,  A. Luenser,  
 P. Manohar,  S. F. Manzer,  S.-P. Mao,  N. Mardirossian,  A. V. Marenich,  
 L. A. Martinez-Martinez,  S. A. Maurer,  N. J. Mayhall,  K. Nanda,  
 C. M. Oana,  R. Olivares-Amaya,  D. P. O'Neill,  J. A. Parkhill,  
 T. M. Perrine,  R. Peverati,  P. A. Pieniazek,  F. Plasser,  A. Prociuk,  
 D. R. Rehn,  E. Rosta,  N. J. Russ,  N. Sergueev,  S. M. Sharada,  
 S. Sharma,  D. W. Small,  A. Sodt,  T. Stauch,  T. Stein,  D. Stuck,  
 Y.-C. Su,  A. J. W. Thom,  T. Tsuchimochi,  L. Vogt,  O. Vydrov,  T. Wang,  
 M. A. Watson,  J. Wenzel,  A. White,  C. F. Williams,  V. Vanovschi,  
 S. Yeganeh,  S. R. Yost,  Z.-Q. You,  I. Y. Zhang,  X. Zhang,  Y. Zhao,  
 B. R. Brooks,  G. K. L. Chan,  D. M. Chipman,  C. J. Cramer,  
 W. A. Goddard III,  M. S. Gordon,  W. J. Hehre,  A. Klamt,  
 H. F. Schaefer III,  M. W. Schmidt,  C. D. Sherrill,  D. G. Truhlar,  
 A. Warshel,  X. Xu,  A. Aspuru-Guzik,  R. Baer,  A. T. Bell,  N. A. Besley,  
 J.-D. Chai,  A. Dreuw,  B. D. Dunietz,  T. R. Furlani,  S. R. Gwaltney,  
 C.-P. Hsu,  Y. Jung,  J. Kong,  D. S. Lambrecht,  W. Liang,  C. Ochsenfeld,  
 V. A. Rassolov,  L. V. Slipchenko,  J. E. Subotnik,  T. Van Voorhis,  
 J. M. Herbert,  A. I. Krylov,  P. M. W. Gill,  M. Head-Gordon

 Contributors to earlier versions of Q-Chem not listed above: 
 R. D. Adamson,  J. Baker,  E. F. C. Byrd,  A. K. Chakraborty,  C.-L. Cheng,  
 H. Dachsel,  R. J. Doerksen,  G. Hawkins,  A. Heyden,  S. Hirata,  
 G. Kedziora,  F. J. Keil,  C. Kelley,  P. P. Korambath,  W. Kurlancheek,  
 A. M. Lee,  M. S. Lee,  D. Liotard,  I. Lotan,  P. E. Maslen,  N. Nair,  
 D. Neuhauser,  R. Olson,  B. Peters,  J. Ritchie,  N. E. Schultz,  
 N. Shenvi,  A. C. Simmonett,  K. S. Thanthiriwatte,  Q. Wu,  W. Zhang

 Please cite Q-Chem as follows:
 Y. Shao et al., Mol. Phys. 113, 184-215 (2015)
 DOI: 10.1080/00268976.2014.952696

 Q-Chem 4.3.0 for Intel X86 EM64T Linux

 Parts of Q-Chem use Armadillo 5.200.1 (Boston Tea Smuggler).
 http://arma.sourceforge.net/

 Q-Chem begins on Wed Mar 29 12:48:39 2017  


Host: 0

     Scratch files written to /home/nmayhall/scratch_qchem/shrink3//
 Dec1416 |home|nmayhall|qcSoftware|qchem|qchem.svn-casman|libmdc|qstr_RNUM -1
 Using version located at /home/nmayhall/qcSoftware/qchem/qchem.svn-casman/bin/qchem

 Turning off symmetry for CASMAN

Total Memory Limit in MB = 2000
Mega-Array Size in MB = 62

Checking the input file for inconsistencies... 	...done.

 Q-Chem warning in module /home/nmayhall/qcSoftware/qchem/qchem.svn-casman/forms1/BasisType.C, line 1452:

 You are not using the predefined 5D/6D in this basis set.

Finally everything over in PARseQInput

--------------------------------------------------------------
User input:
--------------------------------------------------------------
$rem
	exchange 		hf
	unrestricted		0
	basis			6-31g*	
	aux_basis		rimp2-vdz
	scf_guess		read	
	scf_convergence		8
	scf_max_cycles		200
	purecart		1111

	symmetry		0
	sym_ignore		1

	correlation		sf-cas
	cas_n_spin_flip		1
	cas_local		1
	gui			2
$end

$development
	1sf_heis_projection	1
	scf_corresponding_orbs	1
        heisenberg_n_roots	0
$end

$molecule
read
$end

--------------------------------------------------------------
 ----------------------------------------------------------------
             Standard Nuclear Orientation (Angstroms)
    I     Atom           X                Y                Z
 ----------------------------------------------------------------
    1      H      -2.0758129200     2.4587274600    -0.2026765800
    2      H      -1.8827737200     1.1982500100     0.1353680100
    3      H      -3.0584903400     1.5845179500    -0.3218243400
    4      H      -2.6565707700     1.9670679900     0.8773879500
    5      H       0.6647022000    -0.5036077800    -0.0400293900
    6      H      -0.5633857800    -0.0254129400    -0.1004416200
    7      H      -0.3327520500    -1.1688129900     0.5150895300
    8      H      -0.2393890200    -1.0953735300    -0.8006752800
    9      H       0.7810068600     1.5126021000     0.2391484500
   10      H      -0.1282165200     1.8075044700    -0.6712413300
   11      H       0.8081839800     2.6861608800    -0.3657903300
   12      H      -0.1491461100     2.4126692400     0.5015155500
   13      H      -2.2979756700    -1.3277568600    -0.5344809300
   14      H      -2.3994451800    -0.6661747800     0.6034953600
   15      H      -3.3254720100    -1.5445323000     0.2662308000
   16      H      -3.2286243600    -0.4021747200    -0.3892203900
   17      H      -0.0365812200     0.6403681800     1.7825945400
   18      H      -0.9862568100     1.5298721100     2.0087595000
   19      H      -0.7055189100     0.6170183100     2.9207166300
   20      H      -1.3024095300     0.2658225600     1.7968829400
   21      H      -0.6248988000     0.5229554400    -2.0819146500
   22      H      -1.8310584600     0.2461760100    -1.6226300700
   23      H      -1.6578845100     0.5080255200    -2.9047223700
   24      H      -1.5392762100     1.4733527400    -2.0111797800
   25      He     10.0000000000    10.0000000000    10.0000000000
   26      He    -10.0000000000    10.0000000000    10.0000000000
 ----------------------------------------------------------------
 Nuclear Repulsion Energy =    59.1413378918 hartrees
 There are       26 alpha and        2 beta electrons
 Requested basis set is 6-31G(d)
 There are 52 shells and 52 basis functions

Total QAlloc Memory Limit   2000 MB
Mega-Array Size        61 MB
MEM_STATIC part        62 MB

finished with qalloc call

 Q-Chem warning in module /home/nmayhall/qcSoftware/qchem/qchem.svn-casman/forms1/BasisType.C, line 1375:

 SAD: How to set up polarization functions for non-Pople basis?

 Requested basis set is rimp2-VDZ
 There are 154 shells and 354 basis functions
 Job number = 2, Threshold = 1.00E-12
Integral type ranges set in mkLRange.C for JobNum: 2  <1-7|1-7>
Symmetry turned off temporarily
 Using the largest function pair in Schwarz integrals
Total number of integrals generated =            2582
Symmetry turned back on
 A cutoff of  1.0D-12 yielded   1172 shell pairs
 There are      1172 function pairs
 Job number = 11, Threshold = 1.00E-12
Integral type ranges set in mkLRange.C for JobNum: 11  <1-1|8-8>

 -------------------------------------------------------
 OpenMP Integral Computing Module                       
 Release: version 1.0, May 2013, Q-Chem Inc. Pittsburgh 
 -------------------------------------------------------
 Integral Job Info:
 Integral job number is                      11
 Integral operator is                         1
 short-range coefficients                     0
 long-range coefficients              100000000
 Omega coefficients                           0
 if combine SR and LR in K                    0
 Integral screening is                        0
 Integral computing path is                   2
 max size of driver memory is            800000
 size of driver memory is                 11780
 size of scratch memory is               800000
 max col of scratch BK array                289
 max len of scratch array in speh3            1
 max len of scratch index in speh4            2
 max int batch size is                      520
 min int batch size is                       52
 fixed nKL is                               520
 max L of basis functions is                  0
 order of int derivative is                   0
 number of shells is                         52
 number of basis is                          52
 number of cartesian basis is                52
 number of contracted shell pairs          1172
 number of primitive shell pairs           3447
 maxK2 (contraction) of shell pair            9
 max number of K2 of shell pair               1
 max number of CS2 of shell pair            590
 max number of PS2 of shell pair           1770
 mem total for path MDJ                   12096
 -------------------------------------------------------
 Smallest overlap matrix eigenvalue = 7.37E-02
 Multipole matrices computed through 2nd order

  Scale SEOQF with 1.000000e-02/1.000000e-02/1.000000e-02

 Standard Electronic Orientation quadrupole field applied
 Nucleus-field energy     =     0.0000000001 hartrees
GuessMan:  IGuess = 1000
 Guess MOs from SCF MO coefficient file
 Reading MOs from coefficient file
 Reading MOs from coefficient file
scfman initvdwdat 
 A restricted Hartree-Fock SCF calculation will be
 performed using Geometric Direct Minimization
 SCF converges when RMS gradient is below 1.0E-08
Finding J and K together
 Job number = 22, Threshold = 1.00E-12
Integral type ranges set in mkLRange.C for JobNum: 22  <1-1|1-1>
Storing 264.51% of integrals
Total number of integrals generated =          671902
 MakeJK  time:  CPU       0.20 s  wall       0.20 s
Fock build time:  0.20 s (CPU) 0.20 s (wall)
 ---------------------------------------
  Cycle       Energy        RMS Gradient
 ---------------------------------------
    1     -15.9538831974      9.41E-02  00000 Normal BFGS step
Finding J and K together
 Job number = 22, Threshold = 1.00E-12
Integral type ranges set in mkLRange.C for JobNum: 22  <1-1|1-1>
Storing 264.51% of integrals
Reusing in-core integrals buffer for job 22
 MakeJK  time:  CPU       0.03 s  wall       0.03 s
Fock build time:  0.03 s (CPU) 0.03 s (wall)
    2     -14.4585213769      3.56E-01  00000 Descent step
Finding J and K together
 Job number = 22, Threshold = 1.00E-12
Integral type ranges set in mkLRange.C for JobNum: 22  <1-1|1-1>
Storing 264.51% of integrals
Reusing in-core integrals buffer for job 22
 MakeJK  time:  CPU       0.03 s  wall       0.03 s
Fock build time:  0.03 s (CPU) 0.03 s (wall)
    3     -14.5148011585      2.75E-01  00000 Descent step
Finding J and K together
 Job number = 22, Threshold = 1.00E-12
Integral type ranges set in mkLRange.C for JobNum: 22  <1-1|1-1>
Storing 264.51% of integrals
Reusing in-core integrals buffer for job 22
 MakeJK  time:  CPU       0.03 s  wall       0.03 s
Fock build time:  0.03 s (CPU) 0.03 s (wall)
    4     -14.6037106132      3.48E-02  00000 Normal BFGS step
Finding J and K together
 Job number = 22, Threshold = 1.00E-12
Integral type ranges set in mkLRange.C for JobNum: 22  <1-1|1-1>
Storing 264.51% of integrals
Reusing in-core integrals buffer for job 22
 MakeJK  time:  CPU       0.04 s  wall       0.03 s
Fock build time:  0.04 s (CPU) 0.03 s (wall)
    5     -14.6098624053      1.56E-02  00000 Normal BFGS step
Finding J and K together
 Job number = 22, Threshold = 1.00E-12
Integral type ranges set in mkLRange.C for JobNum: 22  <1-1|1-1>
Storing 264.51% of integrals
Reusing in-core integrals buffer for job 22
 MakeJK  time:  CPU       0.03 s  wall       0.03 s
Fock build time:  0.03 s (CPU) 0.03 s (wall)
    6     -14.6040368152      3.38E-03  00000 Line search: overstep
Finding J and K together
 Job number = 22, Threshold = 1.00E-12
Integral type ranges set in mkLRange.C for JobNum: 22  <1-1|1-1>
Storing 264.51% of integrals
Reusing in-core integrals buffer for job 22
 MakeJK  time:  CPU       0.03 s  wall       0.03 s
Fock build time:  0.03 s (CPU) 0.03 s (wall)
    7     -14.6100019211      1.49E-02  00000 Normal BFGS step
Finding J and K together
 Job number = 22, Threshold = 1.00E-12
Integral type ranges set in mkLRange.C for JobNum: 22  <1-1|1-1>
Storing 264.51% of integrals
Reusing in-core integrals buffer for job 22
 MakeJK  time:  CPU       0.03 s  wall       0.03 s
Fock build time:  0.03 s (CPU) 0.03 s (wall)
    8     -14.6107569465      4.47E-03  00000 Normal BFGS step
Finding J and K together
 Job number = 22, Threshold = 1.00E-12
Integral type ranges set in mkLRange.C for JobNum: 22  <1-1|1-1>
Storing 264.51% of integrals
Reusing in-core integrals buffer for job 22
 MakeJK  time:  CPU       0.03 s  wall       0.03 s
Fock build time:  0.03 s (CPU) 0.03 s (wall)
    9     -14.6109422132      4.09E-03  00000 Normal BFGS step
Finding J and K together
 Job number = 22, Threshold = 1.00E-12
Integral type ranges set in mkLRange.C for JobNum: 22  <1-1|1-1>
Storing 264.51% of integrals
Reusing in-core integrals buffer for job 22
 MakeJK  time:  CPU       0.03 s  wall       0.03 s
Fock build time:  0.03 s (CPU) 0.03 s (wall)
   10     -14.6111124181      4.84E-03  00000 Normal BFGS step
Finding J and K together
 Job number = 22, Threshold = 1.00E-12
Integral type ranges set in mkLRange.C for JobNum: 22  <1-1|1-1>
Storing 264.51% of integrals
Reusing in-core integrals buffer for job 22
 MakeJK  time:  CPU       0.03 s  wall       0.03 s
Fock build time:  0.03 s (CPU) 0.03 s (wall)
   11     -14.6114118946      9.24E-03  00000 Dog-leg BFGS step
Finding J and K together
 Job number = 22, Threshold = 1.00E-12
Integral type ranges set in mkLRange.C for JobNum: 22  <1-1|1-1>
Storing 264.51% of integrals
Reusing in-core integrals buffer for job 22
 MakeJK  time:  CPU       0.04 s  wall       0.03 s
Fock build time:  0.04 s (CPU) 0.03 s (wall)
   12     -14.6037540719      1.19E-02  00000 Line search: overstep
Finding J and K together
 Job number = 22, Threshold = 1.00E-12
Integral type ranges set in mkLRange.C for JobNum: 22  <1-1|1-1>
Storing 264.51% of integrals
Reusing in-core integrals buffer for job 22
 MakeJK  time:  CPU       0.03 s  wall       0.03 s
Fock build time:  0.03 s (CPU) 0.03 s (wall)
   13     -14.6116752715      1.24E-02  00000 Dog-leg BFGS step
Finding J and K together
 Job number = 22, Threshold = 1.00E-12
Integral type ranges set in mkLRange.C for JobNum: 22  <1-1|1-1>
Storing 264.51% of integrals
Reusing in-core integrals buffer for job 22
 MakeJK  time:  CPU       0.03 s  wall       0.03 s
Fock build time:  0.03 s (CPU) 0.03 s (wall)
   14     -14.6132298928      1.77E-02  00000 Dog-leg BFGS step
Finding J and K together
 Job number = 22, Threshold = 1.00E-12
Integral type ranges set in mkLRange.C for JobNum: 22  <1-1|1-1>
Storing 264.51% of integrals
Reusing in-core integrals buffer for job 22
 MakeJK  time:  CPU       0.03 s  wall       0.03 s
Fock build time:  0.03 s (CPU) 0.03 s (wall)
   15     -14.6163508521      2.38E-02  00000 Dog-leg BFGS step
Finding J and K together
 Job number = 22, Threshold = 1.00E-12
Integral type ranges set in mkLRange.C for JobNum: 22  <1-1|1-1>
Storing 264.51% of integrals
Reusing in-core integrals buffer for job 22
 MakeJK  time:  CPU       0.03 s  wall       0.03 s
Fock build time:  0.03 s (CPU) 0.03 s (wall)
   16     -14.6194056187      1.95E-02  00000 Dog-leg BFGS step
Finding J and K together
 Job number = 22, Threshold = 1.00E-12
Integral type ranges set in mkLRange.C for JobNum: 22  <1-1|1-1>
Storing 264.51% of integrals
Reusing in-core integrals buffer for job 22
 MakeJK  time:  CPU       0.03 s  wall       0.03 s
Fock build time:  0.03 s (CPU) 0.03 s (wall)
   17     -14.6212733007      1.63E-02  00000 Normal BFGS step
Finding J and K together
 Job number = 22, Threshold = 1.00E-12
Integral type ranges set in mkLRange.C for JobNum: 22  <1-1|1-1>
Storing 264.51% of integrals
Reusing in-core integrals buffer for job 22
 MakeJK  time:  CPU       0.04 s  wall       0.03 s
Fock build time:  0.04 s (CPU) 0.03 s (wall)
   18     -14.6216526772      1.22E-02  00000 Normal BFGS step
Finding J and K together
 Job number = 22, Threshold = 1.00E-12
Integral type ranges set in mkLRange.C for JobNum: 22  <1-1|1-1>
Storing 264.51% of integrals
Reusing in-core integrals buffer for job 22
 MakeJK  time:  CPU       0.04 s  wall       0.03 s
Fock build time:  0.04 s (CPU) 0.03 s (wall)
   19     -14.6220111854      2.95E-03  00000 Normal BFGS step
Finding J and K together
 Job number = 22, Threshold = 1.00E-12
Integral type ranges set in mkLRange.C for JobNum: 22  <1-1|1-1>
Storing 264.51% of integrals
Reusing in-core integrals buffer for job 22
 MakeJK  time:  CPU       0.03 s  wall       0.03 s
Fock build time:  0.03 s (CPU) 0.03 s (wall)
   20     -14.6220499418      8.85E-04  00000 Normal BFGS step
Finding J and K together
 Job number = 22, Threshold = 1.00E-12
Integral type ranges set in mkLRange.C for JobNum: 22  <1-1|1-1>
Storing 264.51% of integrals
Reusing in-core integrals buffer for job 22
 MakeJK  time:  CPU       0.04 s  wall       0.03 s
Fock build time:  0.04 s (CPU) 0.03 s (wall)
   21     -14.6220549097      3.00E-04  00000 Normal BFGS step
Finding J and K together
 Job number = 22, Threshold = 1.00E-12
Integral type ranges set in mkLRange.C for JobNum: 22  <1-1|1-1>
Storing 264.51% of integrals
Reusing in-core integrals buffer for job 22
 MakeJK  time:  CPU       0.03 s  wall       0.03 s
Fock build time:  0.03 s (CPU) 0.03 s (wall)
   22     -14.6220553640      9.18E-05  00000 Normal BFGS step
Finding J and K together
 Job number = 22, Threshold = 1.00E-12
Integral type ranges set in mkLRange.C for JobNum: 22  <1-1|1-1>
Storing 264.51% of integrals
Reusing in-core integrals buffer for job 22
 MakeJK  time:  CPU       0.04 s  wall       0.03 s
Fock build time:  0.04 s (CPU) 0.03 s (wall)
   23     -14.6220553818      1.24E-05  00000 Normal BFGS step
Finding J and K together
 Job number = 22, Threshold = 1.00E-12
Integral type ranges set in mkLRange.C for JobNum: 22  <1-1|1-1>
Storing 264.51% of integrals
Reusing in-core integrals buffer for job 22
 MakeJK  time:  CPU       0.03 s  wall       0.03 s
Fock build time:  0.03 s (CPU) 0.03 s (wall)
   24     -14.6220553834      3.49E-06  00000 Normal BFGS step
Finding J and K together
 Job number = 22, Threshold = 1.00E-12
Integral type ranges set in mkLRange.C for JobNum: 22  <1-1|1-1>
Storing 264.51% of integrals
Reusing in-core integrals buffer for job 22
 MakeJK  time:  CPU       0.03 s  wall       0.03 s
Fock build time:  0.04 s (CPU) 0.03 s (wall)
   25     -14.6220553835      1.50E-06  00000 Normal BFGS step
Finding J and K together
 Job number = 22, Threshold = 1.00E-12
Integral type ranges set in mkLRange.C for JobNum: 22  <1-1|1-1>
Storing 264.51% of integrals
Reusing in-core integrals buffer for job 22
 MakeJK  time:  CPU       0.03 s  wall       0.03 s
Fock build time:  0.03 s (CPU) 0.03 s (wall)
   26     -14.6220553835      4.65E-07  00000 Normal BFGS step
Finding J and K together
 Job number = 22, Threshold = 1.00E-12
Integral type ranges set in mkLRange.C for JobNum: 22  <1-1|1-1>
Storing 264.51% of integrals
Reusing in-core integrals buffer for job 22
 MakeJK  time:  CPU       0.04 s  wall       0.03 s
Fock build time:  0.04 s (CPU) 0.03 s (wall)
   27     -14.6220553835      9.69E-08  00000 Normal BFGS step
Finding J and K together
 Job number = 22, Threshold = 1.00E-12
Integral type ranges set in mkLRange.C for JobNum: 22  <1-1|1-1>
Storing 264.51% of integrals
Reusing in-core integrals buffer for job 22
 MakeJK  time:  CPU       0.04 s  wall       0.03 s
Fock build time:  0.04 s (CPU) 0.03 s (wall)
   28     -14.6220553835      7.35E-08  00000 Normal BFGS step
Finding J and K together
 Job number = 22, Threshold = 1.00E-12
Integral type ranges set in mkLRange.C for JobNum: 22  <1-1|1-1>
Storing 264.51% of integrals
Reusing in-core integrals buffer for job 22
 MakeJK  time:  CPU       0.03 s  wall       0.03 s
Fock build time:  0.03 s (CPU) 0.03 s (wall)
   GDM::WARNING energy changes are now smaller than effective accuracy.
   GDM::        calculation will continue, but THRESH should be increased
   GDM::        or SCF_CONVERGENCE decreased.
   GDM::        effective_thresh =    2.0841385018613087E-009
   29     -14.6220553835      1.62E-07  00000 Normal BFGS step
Finding J and K together
 Job number = 22, Threshold = 1.00E-12
Integral type ranges set in mkLRange.C for JobNum: 22  <1-1|1-1>
Storing 264.51% of integrals
Reusing in-core integrals buffer for job 22
 MakeJK  time:  CPU       0.03 s  wall       0.03 s
Fock build time:  0.03 s (CPU) 0.03 s (wall)
   30     -14.6220553835      8.60E-07  00000 Line search: understep
Finding J and K together
 Job number = 22, Threshold = 1.00E-12
Integral type ranges set in mkLRange.C for JobNum: 22  <1-1|1-1>
Storing 264.51% of integrals
Reusing in-core integrals buffer for job 22
 MakeJK  time:  CPU       0.04 s  wall       0.03 s
Fock build time:  0.04 s (CPU) 0.03 s (wall)
   31     -14.6220553837      8.27E-06  00000 Line search: understep
Finding J and K together
 Job number = 22, Threshold = 1.00E-12
Integral type ranges set in mkLRange.C for JobNum: 22  <1-1|1-1>
Storing 264.51% of integrals
Reusing in-core integrals buffer for job 22
 MakeJK  time:  CPU       0.04 s  wall       0.03 s
Fock build time:  0.04 s (CPU) 0.03 s (wall)
   32     -14.6220553968      7.50E-05  00000 Line search: understep
Finding J and K together
 Job number = 22, Threshold = 1.00E-12
Integral type ranges set in mkLRange.C for JobNum: 22  <1-1|1-1>
Storing 264.51% of integrals
Reusing in-core integrals buffer for job 22
 MakeJK  time:  CPU       0.03 s  wall       0.03 s
Fock build time:  0.03 s (CPU) 0.03 s (wall)
   33     -14.6220564648      6.75E-04  00000 Line search: understep
Finding J and K together
 Job number = 22, Threshold = 1.00E-12
Integral type ranges set in mkLRange.C for JobNum: 22  <1-1|1-1>
Storing 264.51% of integrals
Reusing in-core integrals buffer for job 22
 MakeJK  time:  CPU       0.03 s  wall       0.03 s
Fock build time:  0.03 s (CPU) 0.03 s (wall)
   34     -14.6221452237      6.08E-03  00000 Line search: understep
Finding J and K together
 Job number = 22, Threshold = 1.00E-12
Integral type ranges set in mkLRange.C for JobNum: 22  <1-1|1-1>
Storing 264.51% of integrals
Reusing in-core integrals buffer for job 22
 MakeJK  time:  CPU       0.04 s  wall       0.03 s
Fock build time:  0.04 s (CPU) 0.03 s (wall)
   GDM::BFGS:   rebuilding Hinv to be positive definite
   35     -14.6298845938      2.75E-01  00000 Descent step
Finding J and K together
 Job number = 22, Threshold = 1.00E-12
Integral type ranges set in mkLRange.C for JobNum: 22  <1-1|1-1>
Storing 264.51% of integrals
Reusing in-core integrals buffer for job 22
 MakeJK  time:  CPU       0.04 s  wall       0.03 s
Fock build time:  0.04 s (CPU) 0.03 s (wall)
   GDM::BFGS:   rebuilding Hinv to be positive definite
   36     -14.7657955411      9.41E-01  00000 Descent step
Finding J and K together
 Job number = 22, Threshold = 1.00E-12
Integral type ranges set in mkLRange.C for JobNum: 22  <1-1|1-1>
Storing 264.51% of integrals
Reusing in-core integrals buffer for job 22
 MakeJK  time:  CPU       0.04 s  wall       0.03 s
Fock build time:  0.04 s (CPU) 0.03 s (wall)
   37     -15.1112864597      4.75E-01  00000 Descent step
Finding J and K together
 Job number = 22, Threshold = 1.00E-12
Integral type ranges set in mkLRange.C for JobNum: 22  <1-1|1-1>
Storing 264.51% of integrals
Reusing in-core integrals buffer for job 22
 MakeJK  time:  CPU       0.03 s  wall       0.03 s
Fock build time:  0.03 s (CPU) 0.03 s (wall)
   38     -15.2608264775      1.71E-01  00000 Dog-leg BFGS step
Finding J and K together
 Job number = 22, Threshold = 1.00E-12
Integral type ranges set in mkLRange.C for JobNum: 22  <1-1|1-1>
Storing 264.51% of integrals
Reusing in-core integrals buffer for job 22
 MakeJK  time:  CPU       0.04 s  wall       0.03 s
Fock build time:  0.04 s (CPU) 0.03 s (wall)
   39     -15.3432999891      3.77E-01  00000 Descent step
Finding J and K together
 Job number = 22, Threshold = 1.00E-12
Integral type ranges set in mkLRange.C for JobNum: 22  <1-1|1-1>
Storing 264.51% of integrals
Reusing in-core integrals buffer for job 22
 MakeJK  time:  CPU       0.03 s  wall       0.03 s
Fock build time:  0.03 s (CPU) 0.03 s (wall)
   GDM::BFGS:   rebuilding Hinv to be positive definite
   40     -15.5222442552      1.41E+00  00000 Descent step
Finding J and K together
 Job number = 22, Threshold = 1.00E-12
Integral type ranges set in mkLRange.C for JobNum: 22  <1-1|1-1>
Storing 264.51% of integrals
Reusing in-core integrals buffer for job 22
 MakeJK  time:  CPU       0.03 s  wall       0.03 s
Fock build time:  0.03 s (CPU) 0.03 s (wall)
   41     -15.8735746841      3.34E-01  00000 Descent step
Finding J and K together
 Job number = 22, Threshold = 1.00E-12
Integral type ranges set in mkLRange.C for JobNum: 22  <1-1|1-1>
Storing 264.51% of integrals
Reusing in-core integrals buffer for job 22
 MakeJK  time:  CPU       0.04 s  wall       0.03 s
Fock build time:  0.04 s (CPU) 0.03 s (wall)
   42     -15.9504952110      7.13E-02  00000 Normal BFGS step
Finding J and K together
 Job number = 22, Threshold = 1.00E-12
Integral type ranges set in mkLRange.C for JobNum: 22  <1-1|1-1>
Storing 264.51% of integrals
Reusing in-core integrals buffer for job 22
 MakeJK  time:  CPU       0.04 s  wall       0.03 s
Fock build time:  0.04 s (CPU) 0.03 s (wall)
   43     -15.9504745058      2.85E-03  00000 Line search: overstep
Finding J and K together
 Job number = 22, Threshold = 1.00E-12
Integral type ranges set in mkLRange.C for JobNum: 22  <1-1|1-1>
Storing 264.51% of integrals
Reusing in-core integrals buffer for job 22
 MakeJK  time:  CPU       0.03 s  wall       0.03 s
Fock build time:  0.03 s (CPU) 0.03 s (wall)
   44     -15.9525328325      2.87E-02  00000 Dog-leg BFGS step
Finding J and K together
 Job number = 22, Threshold = 1.00E-12
Integral type ranges set in mkLRange.C for JobNum: 22  <1-1|1-1>
Storing 264.51% of integrals
Reusing in-core integrals buffer for job 22
 MakeJK  time:  CPU       0.03 s  wall       0.03 s
Fock build time:  0.03 s (CPU) 0.03 s (wall)
   45     -15.9518307987      2.40E-03  00000 Line search: overstep
Finding J and K together
 Job number = 22, Threshold = 1.00E-12
Integral type ranges set in mkLRange.C for JobNum: 22  <1-1|1-1>
Storing 264.51% of integrals
Reusing in-core integrals buffer for job 22
 MakeJK  time:  CPU       0.03 s  wall       0.03 s
Fock build time:  0.03 s (CPU) 0.03 s (wall)
   46     -15.9538186229      4.52E-03  00000 Dog-leg BFGS step
Finding J and K together
 Job number = 22, Threshold = 1.00E-12
Integral type ranges set in mkLRange.C for JobNum: 22  <1-1|1-1>
Storing 264.51% of integrals
Reusing in-core integrals buffer for job 22
 MakeJK  time:  CPU       0.04 s  wall       0.03 s
Fock build time:  0.04 s (CPU) 0.03 s (wall)
   47     -15.9534110498      1.17E-03  00000 Line search: overstep
Finding J and K together
 Job number = 22, Threshold = 1.00E-12
Integral type ranges set in mkLRange.C for JobNum: 22  <1-1|1-1>
Storing 264.51% of integrals
Reusing in-core integrals buffer for job 22
 MakeJK  time:  CPU       0.03 s  wall       0.03 s
Fock build time:  0.03 s (CPU) 0.03 s (wall)
   48     -15.9538679664      2.53E-03  00000 Normal BFGS step
Finding J and K together
 Job number = 22, Threshold = 1.00E-12
Integral type ranges set in mkLRange.C for JobNum: 22  <1-1|1-1>
Storing 264.51% of integrals
Reusing in-core integrals buffer for job 22
 MakeJK  time:  CPU       0.03 s  wall       0.03 s
Fock build time:  0.03 s (CPU) 0.03 s (wall)
   49     -15.9538582572      1.68E-04  00000 Line search: overstep
Finding J and K together
 Job number = 22, Threshold = 1.00E-12
Integral type ranges set in mkLRange.C for JobNum: 22  <1-1|1-1>
Storing 264.51% of integrals
Reusing in-core integrals buffer for job 22
 MakeJK  time:  CPU       0.03 s  wall       0.03 s
Fock build time:  0.03 s (CPU) 0.03 s (wall)
   50     -15.9538793987      1.08E-03  00000 Normal BFGS step
Finding J and K together
 Job number = 22, Threshold = 1.00E-12
Integral type ranges set in mkLRange.C for JobNum: 22  <1-1|1-1>
Storing 264.51% of integrals
Reusing in-core integrals buffer for job 22
 MakeJK  time:  CPU       0.04 s  wall       0.03 s
Fock build time:  0.04 s (CPU) 0.03 s (wall)
   51     -15.9538674682      1.58E-04  00000 Line search: overstep
Finding J and K together
 Job number = 22, Threshold = 1.00E-12
Integral type ranges set in mkLRange.C for JobNum: 22  <1-1|1-1>
Storing 264.51% of integrals
Reusing in-core integrals buffer for job 22
 MakeJK  time:  CPU       0.04 s  wall       0.03 s
Fock build time:  0.04 s (CPU) 0.03 s (wall)
   52     -15.9538822117      5.55E-04  00000 Normal BFGS step
Finding J and K together
 Job number = 22, Threshold = 1.00E-12
Integral type ranges set in mkLRange.C for JobNum: 22  <1-1|1-1>
Storing 264.51% of integrals
Reusing in-core integrals buffer for job 22
 MakeJK  time:  CPU       0.04 s  wall       0.03 s
Fock build time:  0.04 s (CPU) 0.03 s (wall)
   53     -15.9538797276      7.49E-05  00000 Line search: overstep
Finding J and K together
 Job number = 22, Threshold = 1.00E-12
Integral type ranges set in mkLRange.C for JobNum: 22  <1-1|1-1>
Storing 264.51% of integrals
Reusing in-core integrals buffer for job 22
 MakeJK  time:  CPU       0.03 s  wall       0.03 s
Fock build time:  0.03 s (CPU) 0.03 s (wall)
   54     -15.9538830754      1.92E-04  00000 Normal BFGS step
Finding J and K together
 Job number = 22, Threshold = 1.00E-12
Integral type ranges set in mkLRange.C for JobNum: 22  <1-1|1-1>
Storing 264.51% of integrals
Reusing in-core integrals buffer for job 22
 MakeJK  time:  CPU       0.03 s  wall       0.03 s
Fock build time:  0.03 s (CPU) 0.03 s (wall)
   55     -15.9538829686      2.49E-05  00000 Line search: overstep
Finding J and K together
 Job number = 22, Threshold = 1.00E-12
Integral type ranges set in mkLRange.C for JobNum: 22  <1-1|1-1>
Storing 264.51% of integrals
Reusing in-core integrals buffer for job 22
 MakeJK  time:  CPU       0.03 s  wall       0.03 s
Fock build time:  0.03 s (CPU) 0.03 s (wall)
   56     -15.9538831590      1.05E-04  00000 Normal BFGS step
Finding J and K together
 Job number = 22, Threshold = 1.00E-12
Integral type ranges set in mkLRange.C for JobNum: 22  <1-1|1-1>
Storing 264.51% of integrals
Reusing in-core integrals buffer for job 22
 MakeJK  time:  CPU       0.04 s  wall       0.03 s
Fock build time:  0.04 s (CPU) 0.03 s (wall)
   57     -15.9538830519      1.71E-05  00000 Line search: overstep
Finding J and K together
 Job number = 22, Threshold = 1.00E-12
Integral type ranges set in mkLRange.C for JobNum: 22  <1-1|1-1>
Storing 264.51% of integrals
Reusing in-core integrals buffer for job 22
 MakeJK  time:  CPU       0.03 s  wall       0.03 s
Fock build time:  0.03 s (CPU) 0.03 s (wall)
   58     -15.9538831920      4.64E-05  00000 Normal BFGS step
Finding J and K together
 Job number = 22, Threshold = 1.00E-12
Integral type ranges set in mkLRange.C for JobNum: 22  <1-1|1-1>
Storing 264.51% of integrals
Reusing in-core integrals buffer for job 22
 MakeJK  time:  CPU       0.03 s  wall       0.03 s
Fock build time:  0.03 s (CPU) 0.03 s (wall)
   GDM::WARNING energy changes are now smaller than effective accuracy.
   GDM::        calculation will continue, but THRESH should be increased
   GDM::        or SCF_CONVERGENCE decreased.
   GDM::        effective_thresh =    2.0841385018613087E-009
   59     -15.9538831917      5.90E-05  00000 Normal BFGS step
Finding J and K together
 Job number = 22, Threshold = 1.00E-12
Integral type ranges set in mkLRange.C for JobNum: 22  <1-1|1-1>
Storing 264.51% of integrals
Reusing in-core integrals buffer for job 22
 MakeJK  time:  CPU       0.03 s  wall       0.03 s
Fock build time:  0.03 s (CPU) 0.03 s (wall)
   60     -15.9538822449      7.02E-05  00000 Line search: overstep
Finding J and K together
 Job number = 22, Threshold = 1.00E-12
Integral type ranges set in mkLRange.C for JobNum: 22  <1-1|1-1>
Storing 264.51% of integrals
Reusing in-core integrals buffer for job 22
 MakeJK  time:  CPU       0.04 s  wall       0.03 s
Fock build time:  0.04 s (CPU) 0.03 s (wall)
   61     -15.9538831879      8.86E-06  00000 Line search: overstep
Finding J and K together
 Job number = 22, Threshold = 1.00E-12
Integral type ranges set in mkLRange.C for JobNum: 22  <1-1|1-1>
Storing 264.51% of integrals
Reusing in-core integrals buffer for job 22
 MakeJK  time:  CPU       0.03 s  wall       0.03 s
Fock build time:  0.03 s (CPU) 0.03 s (wall)
   62     -15.9538831927      6.32E-05  00000 Normal BFGS step
Finding J and K together
 Job number = 22, Threshold = 1.00E-12
Integral type ranges set in mkLRange.C for JobNum: 22  <1-1|1-1>
Storing 264.51% of integrals
Reusing in-core integrals buffer for job 22
 MakeJK  time:  CPU       0.03 s  wall       0.03 s
Fock build time:  0.03 s (CPU) 0.03 s (wall)
   63     -15.9538831973      6.53E-06  00000 Normal BFGS step
Finding J and K together
 Job number = 22, Threshold = 1.00E-12
Integral type ranges set in mkLRange.C for JobNum: 22  <1-1|1-1>
Storing 264.51% of integrals
Reusing in-core integrals buffer for job 22
 MakeJK  time:  CPU       0.03 s  wall       0.03 s
Fock build time:  0.03 s (CPU) 0.03 s (wall)
   64     -15.9538831974      7.09E-06  00000 Normal BFGS step
Finding J and K together
 Job number = 22, Threshold = 1.00E-12
Integral type ranges set in mkLRange.C for JobNum: 22  <1-1|1-1>
Storing 264.51% of integrals
Reusing in-core integrals buffer for job 22
 MakeJK  time:  CPU       0.04 s  wall       0.03 s
Fock build time:  0.04 s (CPU) 0.03 s (wall)
   65     -15.9538831974      7.93E-07  00000 Normal BFGS step
Finding J and K together
 Job number = 22, Threshold = 1.00E-12
Integral type ranges set in mkLRange.C for JobNum: 22  <1-1|1-1>
Storing 264.51% of integrals
Reusing in-core integrals buffer for job 22
 MakeJK  time:  CPU       0.03 s  wall       0.03 s
Fock build time:  0.03 s (CPU) 0.03 s (wall)
   66     -15.9538831974      2.18E-07  00000 Normal BFGS step
Finding J and K together
 Job number = 22, Threshold = 1.00E-12
Integral type ranges set in mkLRange.C for JobNum: 22  <1-1|1-1>
Storing 264.51% of integrals
Reusing in-core integrals buffer for job 22
 MakeJK  time:  CPU       0.04 s  wall       0.03 s
Fock build time:  0.04 s (CPU) 0.03 s (wall)
   67     -15.9538831974      7.23E-09  00000 Convergence criterion met
 ---------------------------------------
 SCF time:  CPU 3.07 s  wall 3.07 s
 Obtaining Corresponding orbitals

 Forming corresponding orbitals block-by-block...
 Size of singly occupied alpha block:      24 : 24.0000
 Size of doubly occupied block:             2 : 2.0000
 Size of singly occupied beta block:        0 : 0.0000
 Size of unoccupied block:                 26 : 26.0000
 Use scf_boys =     0 (Canonical)
                    1 (Boys)
                    2 (Pipek-Mezey)
                    3 (ER)
 Build new fock matrix
 I'm here
 I'm here
 Calling AOints...
 Job number = 22, Threshold = 1.00E-12
Integral type ranges set in mkLRange.C for JobNum: 22  <1-1|1-1>
Storing 264.51% of integrals
 done.
 E(SCF): disk=    -15.953883197404 current=    -15.953883197404 diff=   8.882e-15
 SCF   energy in the final basis set = -15.9538831974
 Total energy in the final basis set = -15.9538831974
 DevKeyword Parameters: 
 1sf_heis_projection                   1
  heisenberg_n_roots                   0
scf_corresponding_orbs                   1


 ========================================================
                       In SF-CAS-CI                      
 ========================================================
 DevKeyword Parameters: 
 1sf_heis_projection                   1
  heisenberg_n_roots                   0
scf_corresponding_orbs                   1

 Forming orbitals for SF-CAS calculation.
NBas   : 52
NOrb   : 52
NDOcc  : 2
NSOcc  : 24
NDVir  : 26
ISpin  : 0
e_hf: -15.95388320
 Using OPT1 Orbitals: Favg | Favg | Favg 
 A/B mix in Doubly occupied F  : 0.50000000
 A/B mix in Singly occupied F  : 0.50000000
 A/B mix in Doubly unoccupied F: 0.50000000
 Max of F(beta)ds      : 1.052e-09
 Max of F(alpha)sv     : 1.646e-09
 Max of F(average)dv   : 3.356e-10
 Orbital Energies  (D):
    1    -0.91415435    -0.91415435
    2    -0.91411254    -0.91411254
 Orbital Energies  (S):
    3    -0.64529475    -0.64529475
    4    -0.55677838    -0.55677838
    5    -0.55112791    -0.55112791
    6    -0.54164846    -0.54164846
    7    -0.50642938    -0.50642938
    8    -0.49514379    -0.49514379
    9    -0.25508532    -0.25508532
   10    -0.21821200    -0.21821200
   11    -0.21128693    -0.21128693
   12    -0.19331926    -0.19331926
   13    -0.18229980    -0.18229980
   14    -0.17550491    -0.17550491
   15    -0.13444863    -0.13444863
   16    -0.09489465    -0.09489465
   17    -0.08574607    -0.08574607
   18    -0.07854540    -0.07854540
   19    -0.06730304    -0.06730304
   20    -0.06089609    -0.06089609
   21    -0.05905727    -0.05905727
   22    -0.04707956    -0.04707956
   23    -0.03668002    -0.03668002
   24    -0.02161634    -0.02161634
   25    -0.00845380    -0.00845380
   26    -0.00432623    -0.00432623
 Orbital Energies  (V):
   27     0.87436064     0.87436064
   28     0.91637450     0.91637450
   29     0.92349249     0.92349249
   30     0.92820020     0.92820020
   31     0.94674503     0.94674503
   32     0.96627722     0.96627722
   33     0.97282836     0.97282836
   34     0.98672014     0.98672014
   35     0.99580139     0.99580139
   36     1.01082499     1.01082499
   37     1.01667646     1.01667646
   38     1.02509424     1.02509424
   39     1.03144046     1.03144046
   40     1.04345814     1.04345814
   41     1.05246423     1.05246423
   42     1.07806093     1.07806093
   43     1.09783309     1.09783309
   44     1.11832664     1.11832664
   45     1.13837208     1.13837208
   46     1.33643744     1.33643744
   47     1.38383317     1.38383317
   48     1.39983162     1.39983162
   49     1.39987342     1.39987342
   50     1.42801199     1.42801199
   51     1.45070039     1.45070039
   52     1.46152379     1.46152379
 tr(Pa)     :   26.0000000000
 tr(Pb)     :    2.0000000000
 E(core) with new P : -132.63231693
 E(HF) with new P   : -15.95388320
 Difference in Ehf  :  -1.3323e-13

 Number of spin flips: 1
 Use cas_local =    0 (Canonical)
                    1 (Boys)
                    2 (Pipek-Mezey)
                    3 (ER)
 Using Boys orbitals in casman
 
 
 
Calling Get_Boys in C++
 
 
 
Orbital 1 Variance 13.59850302
Orbital 18 Variance 14.39273933
Orbital 3 Variance 15.06539125
Orbital 7 Variance 16.21332494
Orbital 6 Variance 18.66448701
Orbital 4 Variance 18.81450643
Orbital 8 Variance 19.30158650
Orbital 9 Variance 19.53310051
Orbital 2 Variance 19.81556426
Orbital 23 Variance 20.48354053
Orbital 14 Variance 20.54418308
Orbital 24 Variance 20.72533582
Orbital 12 Variance 20.75429980
Orbital 13 Variance 20.89358028
Orbital 16 Variance 21.20933216
Orbital 5 Variance 21.46571465
Orbital 22 Variance 22.20554552
Orbital 10 Variance 22.81300087
Orbital 20 Variance 23.09443091
Orbital 15 Variance 23.67381840
Orbital 17 Variance 24.02163642
Orbital 11 Variance 24.39867964
Orbital 21 Variance 26.26479968
Orbital 19 Variance 27.84177492
          ***** NUMBER OF SADDLE POINTS SO FAR = 0 ******

Initially in boys_jacobi.C before sweep, get_boys, boysval = 164.314560
In BOYS_JACOBI SWEEPS for get_boys, ending in round     7  because max_diff = 6.931795e-07


---> BEGIN 2nd Der Calculation    ******  
Guessing MaxD =  20 and MinD = 10
in get_boys.C: p = 0 guessthresh  30.5727721701 numsofar 23 MinD 10
in get_boys.C: p = 1 guessthresh  30.0727721701 numsofar 17 MinD 10
in get_boys.C: p = 2 guessthresh  29.8227721701 numsofar 12 MinD 10
in get_boys.C: p = 3 guessthresh  29.6977721701 numsofar 6 MinD 10
DimInGuess 6 mineval  29.5727721701 guessthresh  29.6977721701
round 0 sizeofsub 6 eval0 2.865001e+01 diffeval0 1.000277e+05 length_qM 1.553459e+00 thresh 1.000000e-08
round 1 sizeofsub 7 eval0 2.802240e+01 diffeval0 6.276098e-01 length_qM 3.486873e-01 thresh 1.000000e-08
round 2 sizeofsub 8 eval0 2.802083e+01 diffeval0 1.562000e-03 length_qM 6.043326e-02 thresh 1.000000e-08
round 3 sizeofsub 9 eval0 2.802035e+01 diffeval0 4.815327e-04 length_qM 2.894708e-02 thresh 1.000000e-08
round 4 sizeofsub 10 eval0 2.802034e+01 diffeval0 1.564087e-05 length_qM 3.574484e-03 thresh 1.000000e-08
round 5 sizeofsub 11 eval0 2.802033e+01 diffeval0 3.184732e-06 length_qM 5.990882e-03 thresh 1.000000e-08
round 6 sizeofsub 12 eval0 2.802032e+01 diffeval0 1.331656e-05 length_qM 1.213731e-02 thresh 1.000000e-08
round 7 sizeofsub 13 eval0 2.802031e+01 diffeval0 1.482394e-05 length_qM 6.692027e-03 thresh 1.000000e-08
round 8 sizeofsub 14 eval0 2.802030e+01 diffeval0 6.110900e-06 length_qM 4.664781e-03 thresh 1.000000e-08
round 9 sizeofsub 15 eval0 2.802030e+01 diffeval0 5.034192e-07 length_qM 6.112106e-04 thresh 1.000000e-08
round 10 sizeofsub 16 eval0 2.802030e+01 diffeval0 9.453093e-08 length_qM 9.098295e-04 thresh 1.000000e-08
round 11 sizeofsub 17 eval0 2.802030e+01 diffeval0 5.264805e-08 length_qM 2.597956e-04 thresh 1.000000e-08
round 12 sizeofsub 18 eval0 2.802030e+01 diffeval0 1.340808e-08 length_qM 3.012101e-04 thresh 1.000000e-08
round 13 sizeofsub 19 eval0 2.802030e+01 diffeval0 3.608352e-08 length_qM 6.278839e-04 thresh 1.000000e-08
round 14 sizeofsub 20 eval0 2.802030e+01 diffeval0 2.747961e-08 length_qM 3.884302e-04 thresh 1.000000e-08
round 15 sizeofsub 11 eval0 2.802030e+01 diffeval0 3.777569e-08 length_qM 6.961677e-04 thresh 1.000000e-08
round 16 sizeofsub 12 eval0 2.802030e+01 diffeval0 6.016199e-08 length_qM 4.348374e-04 thresh 1.000000e-08
round 17 sizeofsub 13 eval0 2.802030e+01 diffeval0 5.350059e-08 length_qM 7.808208e-04 thresh 1.000000e-08
round 18 sizeofsub 14 eval0 2.802030e+01 diffeval0 5.017643e-08 length_qM 4.550590e-04 thresh 1.000000e-08
round 19 sizeofsub 15 eval0 2.802030e+01 diffeval0 9.024674e-09 length_qM 1.663664e-04 thresh 1.000000e-08
round 20 sizeofsub 16 eval0 2.802030e+01 diffeval0 3.522349e-09 length_qM 1.365480e-04 thresh 1.000000e-08
round 21 sizeofsub 17 eval0 2.802030e+01 diffeval0 5.586998e-10 length_qM 3.829577e-05 thresh 1.000000e-08
round 22 sizeofsub 18 eval0 2.802030e+01 diffeval0 1.075229e-10 length_qM 3.028056e-05 thresh 1.000000e-08
round 23 sizeofsub 19 eval0 2.802030e+01 diffeval0 5.272582e-11 length_qM 1.722955e-05 thresh 1.000000e-08
round 24 sizeofsub 20 eval0 2.802030e+01 diffeval0 1.097433e-11 length_qM 3.486534e-06 thresh 1.000000e-08
round 25 sizeofsub 11 eval0 2.802030e+01 diffeval0 1.598721e-12 length_qM 1.798665e-06 thresh 1.000000e-08
round 26 sizeofsub 12 eval0 2.802030e+01 diffeval0 8.952838e-13 length_qM 2.249314e-06 thresh 1.000000e-08
round 27 sizeofsub 13 eval0 2.802030e+01 diffeval0 8.526513e-14 length_qM 2.920511e-07 thresh 1.000000e-08
Converged to smallest eigenvalue: eval0 2.802030e+01

Success!!! No Negative Eigenvalues: Ending Get Boys in C++ ...Bye Bye
Orbital 19 Variance 2.66199089
Orbital 10 Variance 2.66312004
Orbital 18 Variance 2.66387239
Orbital 20 Variance 2.67036307
Orbital 7 Variance 2.69398057
Orbital 23 Variance 2.69667673
Orbital 21 Variance 2.70260779
Orbital 16 Variance 2.70281274
Orbital 13 Variance 2.70294003
Orbital 11 Variance 2.70340988
Orbital 8 Variance 2.70802347
Orbital 9 Variance 2.70834854
Orbital 12 Variance 2.71135861
Orbital 6 Variance 2.71849177
Orbital 24 Variance 2.71894130
Orbital 17 Variance 2.72331710
Orbital 15 Variance 2.72523623
Orbital 22 Variance 2.72966389
Orbital 14 Variance 2.73063736
Orbital 3 Variance 2.73824961
Orbital 4 Variance 2.77950549
Orbital 1 Variance 2.77978116
Orbital 2 Variance 2.78117991
Orbital 5 Variance 2.78410743
EXECUTING ORTHO_FUNC DESTRUCTOR

 Dimensions of orbital sub-spaces:    
 Number Hole Orbs:Alpha:Beta:       2    2    2
 Number Active Orbs:Alpha:Beta:    24   23    1
 Number Part Orbs:Alpha:Beta:      26    0    0

 Dimensions in SF-RAS-hp calculation: 
 Number of active space determinants:  576
 Number of hole space determinants:    13296
 Number of part space determinants:    172848
 Number of hole-part determinants:     4021108
 Total 1x space:                       186720
 Total singles space:                  4207828
 REM_MEM_TOT: 2000
 Memory Used: 0
 Memory Left: 2000
 Memory Need: 18
 Constructing 1e MO integrals
 Form (P|Q)**(-1/2)...
 Job number = 66, Threshold = 1.00E-12
Integral type ranges set in mkLRange.C for JobNum: 66  <2-7|2-7>
Symmetry turned off temporarily
Storing 264.51% of integrals
Total number of integrals generated =           72147
Symmetry turned back on
 Forming (pq|P)...
 Forming Active-Active (aa|P) integrals...

 Entering first-index batching code with I1Strt =    3 batch size =   24
 Job number = 65, Threshold = 1.00E-12
Integral type ranges set in mkLRange.C for JobNum: 65  <1-1|2-7>
Symmetry turned off temporarily
Storing 264.51% of integrals
Total number of integrals generated =          443016
Symmetry turned back on
 Forming Active-Active B integrals...
 Contracting B matrices to form 2e integrals. 
 Forming 2J-K over o,v with exact integrals
 Calling AOints... Job number = 22, Threshold = 1.00E-12
Integral type ranges set in mkLRange.C for JobNum: 22  <1-1|1-1>
Storing 264.51% of integrals
Total number of integrals generated =          671902
 done.

 ROHF energy found on disk: 
 E(ROHF):         -15.95388320
-15.95388320
 First 10 Diagonal elements of H: 
 11111111111111111111111_ | 1_______________________        -15.33365927
 11111111111111111111111_ | _1______________________        -15.31297954
 11111111111111111111111_ | __1_____________________        -15.38976224
 11111111111111111111111_ | ___1____________________        -15.55156149
 11111111111111111111111_ | ____1___________________        -15.37812318
 11111111111111111111111_ | _____1__________________        -15.36346322
 11111111111111111111111_ | ______1_________________        -15.38356620
 11111111111111111111111_ | _______1________________        -15.36410267
 11111111111111111111111_ | ________1_______________        -15.38591993
 11111111111111111111111_ | _________1______________        -15.51087449
 Fill S2_CAS Matrix...  done.
 Fill H_CAS Matrix...  done.

 Diagonalizing H_CAS 
 Entering cast_sfcas_to_sfcis
 ===================================================================
 Theory           State:          Energy (au)       (eV)       <S2>
 -------------------------------------------------------------------
 SF-CAS               1:       -16.1924831206     0.0000   132.0000
 SF-CAS               2:       -16.1874288144     0.1375   132.0000
 SF-CAS               3:       -16.1855768519     0.1879   132.0000
 SF-CAS               4:       -16.1787026956     0.3750   132.0000
 SF-CAS               5:       -16.1777759999     0.4002   132.0000
 SF-CAS               6:       -16.1752994609     0.4676   132.0000
 SF-CAS               7:       -16.1729369055     0.5319   132.0000
 SF-CAS               8:       -16.1677301476     0.6736   132.0000
 SF-CAS               9:       -16.1642222348     0.7690   132.0000
 SF-CAS              10:       -16.1630873384     0.7999   132.0000
 SF-CAS              11:       -16.1611599415     0.8524   132.0000
 SF-CAS              12:       -16.1551784793     1.0151   132.0000
 SF-CAS              13:       -16.1520582230     1.1000   132.0000
 SF-CAS              14:       -16.1514972497     1.1153   132.0000
 SF-CAS              15:       -16.1505028485     1.1424   132.0000
 SF-CAS              16:       -16.1493546276     1.1736   132.0000
 SF-CAS              17:       -16.1481462036     1.2065   132.0000
 SF-CAS              18:       -16.1464333073     1.2531   132.0000
 SF-CAS              19:       -16.0053193646     5.0930   132.0000
 SF-CAS              20:       -16.0039319400     5.1308   132.0000
 SF-CAS              21:       -15.9966447532     5.3291   132.0000
 SF-CAS              22:       -15.9905064844     5.4961   132.0000
 SF-CAS              23:       -15.9872724779     5.5841   132.0000
 SF-CAS              24:       -15.9729732910     5.9732   132.0000
 SF-CAS              25:       -15.9641106090     6.2144   132.0000
 SF-CAS              26:       -15.9577768719     6.3867   132.0000
 SF-CAS              27:       -15.9538831974     6.4927   156.0000
 SF-CAS              28:       -15.9522980153     6.5358   132.0000
 SF-CAS              29:       -15.9480332462     6.6519   132.0000
 SF-CAS              30:       -15.9433669993     6.7789   132.0000
 SF-CAS              31:       -15.9412165474     6.8374   132.0000
 SF-CAS              32:       -15.9372956806     6.9441   132.0000
 SF-CAS              33:       -15.9346999931     7.0147   132.0000
 SF-CAS              34:       -15.9289192121     7.1720   132.0000
 SF-CAS              35:       -15.9257767146     7.2575   132.0000
 SF-CAS              36:       -15.9224769839     7.3473   132.0000
 SF-CAS              37:       -15.9142690203     7.5707   132.0000
 SF-CAS              38:       -15.9056234216     7.8059   132.0000
 SF-CAS              39:       -15.9034403451     7.8653   132.0000
 SF-CAS              40:       -15.9015354279     7.9172   132.0000
 SF-CAS              41:       -15.8976667696     8.0224   132.0000
 SF-CAS              42:       -15.8941478296     8.1182   132.0000
 SF-CAS              43:       -15.8898472200     8.2352   132.0000
 SF-CAS              44:       -15.8883877462     8.2749   132.0000
 SF-CAS              45:       -15.8866674408     8.3217   132.0000
 SF-CAS              46:       -15.8830979931     8.4189   132.0000
 SF-CAS              47:       -15.8818541457     8.4527   132.0000
 SF-CAS              48:       -15.8776434402     8.5673   132.0000
 SF-CAS              49:       -15.8726182395     8.7041   132.0000
 SF-CAS              50:       -15.8711682021     8.7435   132.0000
 SF-CAS              51:       -15.8703237961     8.7665   132.0000
 SF-CAS              52:       -15.8685636700     8.8144   132.0000
 SF-CAS              53:       -15.8666678529     8.8660   132.0000
 SF-CAS              54:       -15.8649972566     8.9114   132.0000
 SF-CAS              55:       -15.8634565252     8.9534   132.0000
 SF-CAS              56:       -15.8584871113     9.0886   132.0000
 SF-CAS              57:       -15.8559896016     9.1565   132.0000
 SF-CAS              58:       -15.8543673888     9.2007   132.0000
 SF-CAS              59:       -15.8528905101     9.2409   132.0000
 SF-CAS              60:       -15.8514797909     9.2793   132.0000
 SF-CAS              61:       -15.8487393222     9.3538   132.0000
 SF-CAS              62:       -15.8467414851     9.4082   132.0000
 SF-CAS              63:       -15.8454246922     9.4440   132.0000
 SF-CAS              64:       -15.8429266664     9.5120   132.0000
 SF-CAS              65:       -15.8412745928     9.5570   132.0000
 SF-CAS              66:       -15.8392622014     9.6117   132.0000
 SF-CAS              67:       -15.8380140810     9.6457   132.0000
 SF-CAS              68:       -15.8375448429     9.6585   132.0000
 SF-CAS              69:       -15.8351759666     9.7229   132.0000
 SF-CAS              70:       -15.8299400451     9.8654   132.0000
 SF-CAS              71:       -15.8282996677     9.9100   132.0000
 SF-CAS              72:       -15.8252609542     9.9927   132.0000
 SF-CAS              73:       -15.8232724637    10.0468   132.0000
 SF-CAS              74:       -15.8197772176    10.1419   132.0000
 SF-CAS              75:       -15.8183770016    10.1800   132.0000
 SF-CAS              76:       -15.8173274231    10.2086   132.0000
 SF-CAS              77:       -15.8128598077    10.3302   132.0000
 SF-CAS              78:       -15.8080507485    10.4610   132.0000
 SF-CAS              79:       -15.8059862586    10.5172   132.0000
 SF-CAS              80:       -15.8035395140    10.5838   132.0000
 SF-CAS              81:       -15.8001702324    10.6755   132.0000
 SF-CAS              82:       -15.7939709014    10.8442   132.0000
 SF-CAS              83:       -15.7913511122    10.9155   132.0000
 SF-CAS              84:       -15.7881313111    11.0031   132.0000
 SF-CAS              85:       -15.7848547664    11.0922   132.0000
 SF-CAS              86:       -15.7813728478    11.1870   132.0000
 SF-CAS              87:       -15.7797826610    11.2303   132.0000
 SF-CAS              88:       -15.7763480063    11.3237   132.0000
 SF-CAS              89:       -15.7746822047    11.3691   132.0000
 SF-CAS              90:       -15.7716588178    11.4513   132.0000
 SF-CAS              91:       -15.7711061371    11.4664   132.0000
 SF-CAS              92:       -15.7694285553    11.5120   132.0000
 SF-CAS              93:       -15.7671580142    11.5738   132.0000
 SF-CAS              94:       -15.7649684530    11.6334   132.0000
 SF-CAS              95:       -15.7634203913    11.6755   132.0000
 SF-CAS              96:       -15.7619428383    11.7157   132.0000
 SF-CAS              97:       -15.7595915460    11.7797   132.0000
 SF-CAS              98:       -15.7579031759    11.8256   132.0000
 SF-CAS              99:       -15.7556495614    11.8870   132.0000
 SF-CAS             100:       -15.7530790340    11.9569   132.0000
 SF-CAS             101:       -15.7515589701    11.9983   132.0000
 SF-CAS             102:       -15.7507468274    12.0204   132.0000
 SF-CAS             103:       -15.7458269917    12.1543   132.0000
 SF-CAS             104:       -15.7452783459    12.1692   132.0000
 SF-CAS             105:       -15.7423447822    12.2490   132.0000
 SF-CAS             106:       -15.7408937168    12.2885   132.0000
 SF-CAS             107:       -15.7387351235    12.3472   132.0000
 SF-CAS             108:       -15.7372123545    12.3887   132.0000
 SF-CAS             109:       -15.7336077283    12.4868   132.0000
 SF-CAS             110:       -15.7305886930    12.5689   132.0000
 SF-CAS             111:       -15.7281801734    12.6344   132.0000
 SF-CAS             112:       -15.7246606698    12.7302   132.0000
 SF-CAS             113:       -15.7212089072    12.8241   132.0000
 SF-CAS             114:       -15.7188649891    12.8879   132.0000
 SF-CAS             115:       -15.7180796553    12.9093   132.0000
 SF-CAS             116:       -15.7157272372    12.9733   132.0000
 SF-CAS             117:       -15.7144547741    13.0079   132.0000
 SF-CAS             118:       -15.7125844476    13.0588   132.0000
 SF-CAS             119:       -15.7076485584    13.1931   132.0000
 SF-CAS             120:       -15.7043644010    13.2825   132.0000
 SF-CAS             121:       -15.7026156422    13.3301   132.0000
 SF-CAS             122:       -15.7009015324    13.3767   132.0000
 SF-CAS             123:       -15.6964341240    13.4983   132.0000
 SF-CAS             124:       -15.6939532412    13.5658   132.0000
 SF-CAS             125:       -15.6911682786    13.6416   132.0000
 SF-CAS             126:       -15.6840090777    13.8364   132.0000
 SF-CAS             127:       -15.6832888162    13.8560   132.0000
 SF-CAS             128:       -15.6813854797    13.9078   132.0000
 SF-CAS             129:       -15.6786612872    13.9819   132.0000
 SF-CAS             130:       -15.6774046674    14.0161   132.0000
 SF-CAS             131:       -15.6764674396    14.0416   132.0000
 SF-CAS             132:       -15.6733409963    14.1267   132.0000
 SF-CAS             133:       -15.6728964105    14.1388   132.0000
 SF-CAS             134:       -15.6709757035    14.1911   132.0000
 SF-CAS             135:       -15.6698833134    14.2208   132.0000
 SF-CAS             136:       -15.6678486017    14.2762   132.0000
 SF-CAS             137:       -15.6668424416    14.3036   132.0000
 SF-CAS             138:       -15.6631800164    14.4032   132.0000
 SF-CAS             139:       -15.6616225508    14.4456   132.0000
 SF-CAS             140:       -15.6613436354    14.4532   132.0000
 SF-CAS             141:       -15.6578183957    14.5491   132.0000
 SF-CAS             142:       -15.6566771378    14.5802   132.0000
 SF-CAS             143:       -15.6544977962    14.6395   132.0000
 SF-CAS             144:       -15.6543062407    14.6447   132.0000
 SF-CAS             145:       -15.6537271026    14.6604   132.0000
 SF-CAS             146:       -15.6517206353    14.7150   132.0000
 SF-CAS             147:       -15.6495316576    14.7746   132.0000
 SF-CAS             148:       -15.6480757491    14.8142   132.0000
 SF-CAS             149:       -15.6473636379    14.8336   132.0000
 SF-CAS             150:       -15.6448522632    14.9019   132.0000
 SF-CAS             151:       -15.6433368588    14.9432   132.0000
 SF-CAS             152:       -15.6423999113    14.9687   132.0000
 SF-CAS             153:       -15.6400262795    15.0333   132.0000
 SF-CAS             154:       -15.6363772852    15.1326   132.0000
 SF-CAS             155:       -15.6354741394    15.1571   132.0000
 SF-CAS             156:       -15.6319494971    15.2530   132.0000
 SF-CAS             157:       -15.6283258903    15.3516   132.0000
 SF-CAS             158:       -15.6247704285    15.4484   132.0000
 SF-CAS             159:       -15.6228169042    15.5016   132.0000
 SF-CAS             160:       -15.6212926687    15.5430   132.0000
 SF-CAS             161:       -15.6170691569    15.6580   132.0000
 SF-CAS             162:       -15.6149239837    15.7163   132.0000
 SF-CAS             163:       -15.6131322791    15.7651   132.0000
 SF-CAS             164:       -15.6127187201    15.7763   132.0000
 SF-CAS             165:       -15.6075549782    15.9169   132.0000
 SF-CAS             166:       -15.6039243393    16.0157   132.0000
 SF-CAS             167:       -15.6003589343    16.1127   132.0000
 SF-CAS             168:       -15.5973942845    16.1933   132.0000
 SF-CAS             169:       -15.5912302317    16.3611   132.0000
 SF-CAS             170:       -15.5870380891    16.4752   132.0000
 SF-CAS             171:       -15.5854244834    16.5191   132.0000
 SF-CAS             172:       -15.5820819072    16.6100   132.0000
 SF-CAS             173:       -15.5806869227    16.6480   132.0000
[...]
     15 = 9213.60470159 cm-1
     16 = 9465.61005553 cm-1
     17 = 9730.82846093 cm-1
     18 = 10106.76574177 cm-1
     19 = 41077.69611413 cm-1
     20 = 41382.20060691 cm-1
     21 = 42981.55323954 cm-1
     22 = 44328.74750723 cm-1
     23 = 45038.52987884 cm-1
     24 = 48176.83864882 cm-1

 Projected eigenvectors
   0.0193  -0.0575   0.2728   0.0647  -0.0456  -0.1142  -0.2688  -0.1883   0.0101   0.0997   0.2334  -0.0710  -0.0365  -0.2490   0.0140  -0.2146   0.0319  -0.0278  -0.1228   0.2230  -0.3209   0.0781  -0.0237   0.0122
  -0.1587  -0.3940  -0.2716  -0.1433   0.0547  -0.0021   0.0328  -0.0234   0.1956   0.1988  -0.1511   0.0946   0.0279   0.0088   0.0613   0.0878  -0.2663   0.0944  -0.1038   0.1415  -0.1991   0.0113  -0.0109   0.0623
   0.0816   0.1581   0.0166  -0.1762  -0.1930   0.1779   0.3477  -0.0226   0.0214  -0.0982   0.1316  -0.0197  -0.0839   0.0983  -0.1629   0.0872   0.1556   0.1544  -0.1676   0.2142  -0.3259   0.0096   0.0541  -0.0003
   0.0111   0.1553  -0.0885   0.1987   0.1840  -0.0435  -0.1057   0.2114  -0.1676  -0.1405  -0.2305  -0.0738   0.1063   0.1362   0.0831   0.0561   0.0769  -0.2250  -0.1869   0.2238  -0.3544  -0.0269  -0.0392   0.0759
   0.0486   0.0529  -0.1852  -0.2112  -0.1792  -0.0196  -0.2721  -0.1261  -0.2065   0.0779  -0.1522   0.0906  -0.0443  -0.0452   0.0305   0.0828   0.2525   0.0688  -0.1815   0.2175   0.3585   0.0335  -0.0451   0.0345
  -0.1746   0.3867   0.2845  -0.0536   0.0967  -0.0859   0.0431   0.0806   0.2352   0.1513  -0.1116   0.0031  -0.0042  -0.0498   0.0692   0.1526  -0.2496   0.0942  -0.1154   0.1250   0.2043   0.0188  -0.0187   0.0618
  -0.0095  -0.1851   0.0208   0.0341  -0.0651   0.0773  -0.0054   0.3614   0.0571  -0.1665   0.1996  -0.0500   0.2090   0.0863   0.0162  -0.2711   0.0086   0.1061  -0.1662   0.1688   0.3396  -0.0736  -0.0250   0.0369
   0.0836  -0.1298  -0.0286   0.2338   0.1923  -0.0060   0.2598  -0.2929  -0.0083  -0.0328   0.0479   0.0202  -0.1438   0.0029  -0.1302   0.0210  -0.0022  -0.2655  -0.1806   0.1880   0.3310   0.0090   0.0528   0.0060
  -0.1315  -0.2047   0.2483   0.1312  -0.0127   0.2279   0.0695   0.0422  -0.2151   0.0885  -0.1384  -0.1936  -0.1327   0.0215   0.1578   0.1648   0.1191   0.1505   0.2749   0.0551   0.0500   0.1531  -0.1802   0.0270
   0.3307   0.0116  -0.1022   0.0714  -0.1481  -0.3063   0.1432   0.1869  -0.1024   0.0575  -0.0004   0.0229   0.0883  -0.2769  -0.0932   0.0938  -0.1764   0.0321   0.2132   0.0858   0.0136   0.1999  -0.1003  -0.1018
  -0.0375  -0.0059   0.0465  -0.1423   0.0642  -0.0896  -0.1188  -0.1553   0.2145  -0.1451  -0.0978  -0.0755   0.1711   0.2428  -0.2939  -0.0736   0.0831  -0.0601   0.3814   0.0806   0.0224   0.2536  -0.2006  -0.0431
  -0.1031   0.2123  -0.2400   0.0374   0.0521   0.2046  -0.0229   0.0016   0.0487   0.0608   0.2626   0.2549  -0.1324   0.0109   0.2359  -0.1835  -0.0342  -0.1257   0.2563   0.0621  -0.0221   0.1394  -0.1833   0.0690
  -0.1346   0.0385  -0.0711  -0.1253  -0.1770  -0.1093   0.0489   0.0471  -0.1248   0.0269  -0.0675  -0.3297  -0.2674   0.0673  -0.0303  -0.2457  -0.1881  -0.1939   0.1778  -0.0079   0.0420  -0.2161   0.2201   0.0076
   0.2482   0.0317   0.0743  -0.1654   0.2721   0.2160  -0.0412  -0.1229  -0.2418   0.1082   0.0902   0.0136   0.2793   0.0752   0.0217   0.0101  -0.1944   0.0863   0.1442   0.0149  -0.0048  -0.2445   0.1380  -0.1385
   0.0317  -0.0122  -0.0094   0.0642  -0.0660   0.1141   0.0440  -0.0002   0.3074  -0.0713  -0.1691   0.0238   0.1241  -0.3109   0.1258   0.0264   0.2618  -0.0973   0.2602   0.0243  -0.0036  -0.3436   0.2455  -0.0897
  -0.1510  -0.0478   0.0180   0.1687   0.0310  -0.2721  -0.0868   0.0748  -0.0503  -0.0343   0.1861   0.2854  -0.1446   0.1840  -0.1151   0.2036   0.1170   0.1976   0.1904  -0.0038  -0.0448  -0.2238   0.2115   0.0045
   0.1182   0.0167  -0.1481  -0.0761   0.2234  -0.1637  -0.0159  -0.0673   0.1305  -0.1815   0.1267  -0.3058  -0.1548  -0.0229   0.2436   0.0586   0.0782   0.2370  -0.0906  -0.2036   0.0197  -0.1207  -0.2447  -0.0614
   0.0850  -0.1261   0.2730  -0.2226  -0.0675  -0.0869   0.0842   0.0457  -0.0599  -0.1408  -0.1285   0.3428  -0.0894   0.0729   0.1603  -0.0594  -0.0284  -0.2327  -0.0859  -0.2076  -0.0504  -0.1229  -0.2456  -0.0740
  -0.0425   0.0158  -0.0399   0.0049   0.1095   0.1244  -0.0428   0.1922   0.0038   0.2950   0.0254  -0.0284  -0.0437  -0.1234  -0.3895  -0.0117   0.1362  -0.0819  -0.1222  -0.3237  -0.0229  -0.2205  -0.2976   0.0250
  -0.1337   0.0863  -0.0693   0.3000  -0.3391   0.0454  -0.0038  -0.2571  -0.0565  -0.0624  -0.0283  -0.0163   0.2792   0.0747  -0.0028   0.0164  -0.1827   0.0811  -0.0896  -0.2008  -0.0183  -0.1946  -0.1692   0.0763
  -0.1484  -0.0483  -0.0074  -0.1452  -0.0359   0.0763  -0.1045   0.0404  -0.0481  -0.1963   0.2465  -0.0980   0.0859  -0.1356  -0.0162   0.3798  -0.0812  -0.2717  -0.0446  -0.2028   0.0468   0.2303   0.1690   0.0553
   0.3213  -0.0041   0.0271   0.1675  -0.0955   0.2109  -0.2409   0.0463   0.2010  -0.0248  -0.1327   0.0345  -0.2806   0.1622  -0.0650  -0.0109  -0.1616   0.0847  -0.0878  -0.1681  -0.0062   0.1501   0.2180  -0.0761
   0.0257   0.0075   0.0061   0.0090  -0.0288  -0.1667   0.1503  -0.0173   0.0324   0.3339   0.0400  -0.0547   0.1826   0.2189   0.1914  -0.0886   0.2380  -0.0598  -0.1053  -0.2989  -0.0087   0.2688   0.2898  -0.0416
  -0.1799   0.0422  -0.0267  -0.0243   0.1734  -0.0087   0.1063  -0.0571  -0.1763  -0.2040  -0.1817   0.1301   0.0048  -0.2492  -0.1115  -0.2820   0.0062   0.2542  -0.0474  -0.2072  -0.0461   0.2316   0.1855   0.0722


 Norms of projected eigenvectors (Projection #1 onto neutral determinant basis)
      State    0:   0.71663419
      State    1:   0.72887555
      State    2:   0.72110954
      State    3:   0.71648611
      State    4:   0.72191744
      State    5:   0.72915913
      State    6:   0.71718626
      State    7:   0.72158906
      State    8:   0.73694409
      State    9:   0.72604744
      State   10:   0.73902682
      State   11:   0.75718985
      State   12:   0.75899226
      State   13:   0.74871357
      State   14:   0.74613689
      State   15:   0.76502784
      State   16:   0.76494787
      State   17:   0.76738429
      State   18:   0.86343994
      State   19:   0.86337255
      State   20:   0.88618683
      State   21:   0.86801586
      State   22:   0.85533970
      State   23:   0.30441135

 Projected eigenvectors (local high-spin)
   0.0193  -0.0575   0.2728   0.0647  -0.0456  -0.1142  -0.2688  -0.1883   0.0101   0.0997   0.2334  -0.0710  -0.0365  -0.2490   0.0140  -0.2146   0.0319  -0.0278  -0.1228   0.2230  -0.3209   0.0781  -0.0237   0.0122
  -0.1587  -0.3940  -0.2716  -0.1433   0.0547  -0.0021   0.0328  -0.0234   0.1956   0.1988  -0.1511   0.0946   0.0279   0.0088   0.0613   0.0878  -0.2663   0.0944  -0.1038   0.1415  -0.1991   0.0113  -0.0109   0.0623
   0.0816   0.1581   0.0166  -0.1762  -0.1930   0.1779   0.3477  -0.0226   0.0214  -0.0982   0.1316  -0.0197  -0.0839   0.0983  -0.1629   0.0872   0.1556   0.1544  -0.1676   0.2142  -0.3259   0.0096   0.0541  -0.0003
   0.0111   0.1553  -0.0885   0.1987   0.1840  -0.0435  -0.1057   0.2114  -0.1676  -0.1405  -0.2305  -0.0738   0.1063   0.1362   0.0831   0.0561   0.0769  -0.2250  -0.1869   0.2238  -0.3544  -0.0269  -0.0392   0.0759
   0.0486   0.0529  -0.1852  -0.2112  -0.1792  -0.0196  -0.2721  -0.1261  -0.2065   0.0779  -0.1522   0.0906  -0.0443  -0.0452   0.0305   0.0828   0.2525   0.0688  -0.1815   0.2175   0.3585   0.0335  -0.0451   0.0345
  -0.1746   0.3867   0.2845  -0.0536   0.0967  -0.0859   0.0431   0.0806   0.2352   0.1513  -0.1116   0.0031  -0.0042  -0.0498   0.0692   0.1526  -0.2496   0.0942  -0.1154   0.1250   0.2043   0.0188  -0.0187   0.0618
  -0.0095  -0.1851   0.0208   0.0341  -0.0651   0.0773  -0.0054   0.3614   0.0571  -0.1665   0.1996  -0.0500   0.2090   0.0863   0.0162  -0.2711   0.0086   0.1061  -0.1662   0.1688   0.3396  -0.0736  -0.0250   0.0369
   0.0836  -0.1298  -0.0286   0.2338   0.1923  -0.0060   0.2598  -0.2929  -0.0083  -0.0328   0.0479   0.0202  -0.1438   0.0029  -0.1302   0.0210  -0.0022  -0.2655  -0.1806   0.1880   0.3310   0.0090   0.0528   0.0060
  -0.1315  -0.2047   0.2483   0.1312  -0.0127   0.2279   0.0695   0.0422  -0.2151   0.0885  -0.1384  -0.1936  -0.1327   0.0215   0.1578   0.1648   0.1191   0.1505   0.2749   0.0551   0.0500   0.1531  -0.1802   0.0270
   0.3307   0.0116  -0.1022   0.0714  -0.1481  -0.3063   0.1432   0.1869  -0.1024   0.0575  -0.0004   0.0229   0.0883  -0.2769  -0.0932   0.0938  -0.1764   0.0321   0.2132   0.0858   0.0136   0.1999  -0.1003  -0.1018
  -0.0375  -0.0059   0.0465  -0.1423   0.0642  -0.0896  -0.1188  -0.1553   0.2145  -0.1451  -0.0978  -0.0755   0.1711   0.2428  -0.2939  -0.0736   0.0831  -0.0601   0.3814   0.0806   0.0224   0.2536  -0.2006  -0.0431
  -0.1031   0.2123  -0.2400   0.0374   0.0521   0.2046  -0.0229   0.0016   0.0487   0.0608   0.2626   0.2549  -0.1324   0.0109   0.2359  -0.1835  -0.0342  -0.1257   0.2563   0.0621  -0.0221   0.1394  -0.1833   0.0690
  -0.1346   0.0385  -0.0711  -0.1253  -0.1770  -0.1093   0.0489   0.0471  -0.1248   0.0269  -0.0675  -0.3297  -0.2674   0.0673  -0.0303  -0.2457  -0.1881  -0.1939   0.1778  -0.0079   0.0420  -0.2161   0.2201   0.0076
   0.2482   0.0317   0.0743  -0.1654   0.2721   0.2160  -0.0412  -0.1229  -0.2418   0.1082   0.0902   0.0136   0.2793   0.0752   0.0217   0.0101  -0.1944   0.0863   0.1442   0.0149  -0.0048  -0.2445   0.1380  -0.1385
   0.0317  -0.0122  -0.0094   0.0642  -0.0660   0.1141   0.0440  -0.0002   0.3074  -0.0713  -0.1691   0.0238   0.1241  -0.3109   0.1258   0.0264   0.2618  -0.0973   0.2602   0.0243  -0.0036  -0.3436   0.2455  -0.0897
  -0.1510  -0.0478   0.0180   0.1687   0.0310  -0.2721  -0.0868   0.0748  -0.0503  -0.0343   0.1861   0.2854  -0.1446   0.1840  -0.1151   0.2036   0.1170   0.1976   0.1904  -0.0038  -0.0448  -0.2238   0.2115   0.0045
   0.1182   0.0167  -0.1481  -0.0761   0.2234  -0.1637  -0.0159  -0.0673   0.1305  -0.1815   0.1267  -0.3058  -0.1548  -0.0229   0.2436   0.0586   0.0782   0.2370  -0.0906  -0.2036   0.0197  -0.1207  -0.2447  -0.0614
   0.0850  -0.1261   0.2730  -0.2226  -0.0675  -0.0869   0.0842   0.0457  -0.0599  -0.1408  -0.1285   0.3428  -0.0894   0.0729   0.1603  -0.0594  -0.0284  -0.2327  -0.0859  -0.2076  -0.0504  -0.1229  -0.2456  -0.0740
  -0.0425   0.0158  -0.0399   0.0049   0.1095   0.1244  -0.0428   0.1922   0.0038   0.2950   0.0254  -0.0284  -0.0437  -0.1234  -0.3895  -0.0117   0.1362  -0.0819  -0.1222  -0.3237  -0.0229  -0.2205  -0.2976   0.0250
  -0.1337   0.0863  -0.0693   0.3000  -0.3391   0.0454  -0.0038  -0.2571  -0.0565  -0.0624  -0.0283  -0.0163   0.2792   0.0747  -0.0028   0.0164  -0.1827   0.0811  -0.0896  -0.2008  -0.0183  -0.1946  -0.1692   0.0763
  -0.1484  -0.0483  -0.0074  -0.1452  -0.0359   0.0763  -0.1045   0.0404  -0.0481  -0.1963   0.2465  -0.0980   0.0859  -0.1356  -0.0162   0.3798  -0.0812  -0.2717  -0.0446  -0.2028   0.0468   0.2303   0.1690   0.0553
   0.3213  -0.0041   0.0271   0.1675  -0.0955   0.2109  -0.2409   0.0463   0.2010  -0.0248  -0.1327   0.0345  -0.2806   0.1622  -0.0650  -0.0109  -0.1616   0.0847  -0.0878  -0.1681  -0.0062   0.1501   0.2180  -0.0761
   0.0257   0.0075   0.0061   0.0090  -0.0288  -0.1667   0.1503  -0.0173   0.0324   0.3339   0.0400  -0.0547   0.1826   0.2189   0.1914  -0.0886   0.2380  -0.0598  -0.1053  -0.2989  -0.0087   0.2688   0.2898  -0.0416
  -0.1799   0.0422  -0.0267  -0.0243   0.1734  -0.0087   0.1063  -0.0571  -0.1763  -0.2040  -0.1817   0.1301   0.0048  -0.2492  -0.1115  -0.2820   0.0062   0.2542  -0.0474  -0.2072  -0.0461   0.2316   0.1855   0.0722


 Norms of projected eigenvectors (Projection #2 onto local high-spin states)
      State    0:   0.71663419
      State    1:   0.72887555
      State    2:   0.72110954
      State    3:   0.71648611
      State    4:   0.72191744
      State    5:   0.72915913
      State    6:   0.71718626
      State    7:   0.72158906
      State    8:   0.73694409
      State    9:   0.72604744
      State   10:   0.73902682
      State   11:   0.75718985
      State   12:   0.75899226
      State   13:   0.74871357
      State   14:   0.74613689
      State   15:   0.76502784
      State   16:   0.76494787
      State   17:   0.76738429
      State   18:   0.86343994
      State   19:   0.86337255
      State   20:   0.88618683
      State   21:   0.86801586
      State   22:   0.85533970
      State   23:   0.30441135

 Overlap of projected eigenvectors
   5.1356e-01  -1.8539e-03   4.5519e-04   2.1124e-03   1.4036e-03   4.6141e-03  -8.9723e-03   7.0903e-03  -5.8320e-03  -1.4498e-03   4.8141e-03  -5.9132e-04  -1.6386e-03  -1.9627e-03  -1.1627e-02  -3.1441e-03  -3.2142e-03   5.0357e-05  -3.5449e-02   2.7018e-02   7.4456e-04   3.4033e-03   1.2980e-02  -1.7093e-01
  -1.8539e-03   5.3126e-01   3.1520e-02   9.1424e-03   7.4775e-04  -3.0190e-03  -2.1332e-03   3.3400e-03   7.5941e-03  -2.8737e-03   1.2425e-02  -7.3977e-03   4.0498e-03  -5.2951e-03   1.6467e-03  -4.5117e-04  -3.3138e-03   1.0803e-03  -1.0734e-02   6.5524e-03  -2.8264e-02   1.0724e-03   2.5489e-03   2.5248e-02
   4.5519e-04   3.1520e-02   5.2000e-01  -1.5036e-03   4.0093e-03   6.3978e-03   1.7374e-03   5.7145e-03  -7.3860e-03   3.0904e-04  -1.2159e-02  -3.1744e-03  -5.4671e-03   9.2373e-04   9.8770e-05   7.9088e-03   2.9508e-03  -4.6169e-03   1.2356e-02  -4.3671e-03  -1.8831e-02   1.4889e-02  -7.6020e-03  -4.1926e-02
   2.1124e-03   9.1424e-03  -1.5036e-03   5.1335e-01  -2.4548e-02  -2.9772e-04  -9.6642e-03  -6.7354e-03   9.3603e-04  -3.3405e-03   9.0329e-04  -2.0847e-03   4.2951e-04   9.4863e-03  -1.0196e-02  -8.2442e-04   3.0821e-03   2.3495e-03  -4.2104e-03   5.1066e-03  -1.4325e-02  -3.5344e-02   2.7767e-02   4.2222e-02
   1.4036e-03   7.4775e-04   4.0093e-03  -2.4548e-02   5.2116e-01   9.2012e-03   2.5517e-03  -1.5764e-03   2.1379e-03   4.0806e-03   9.1642e-03   1.9671e-03  -1.8745e-04  -1.2283e-03   1.3050e-02   1.5245e-03   1.5010e-03   6.9444e-03   1.9239e-03  -8.3903e-03  -1.1087e-02   5.1247e-03  -3.1806e-02  -1.4823e-02
   4.6141e-03  -3.0190e-03   6.3978e-03  -2.9772e-04   9.2012e-03   5.3167e-01  -5.8601e-03  -1.6380e-02  -2.2860e-03   9.8574e-04   8.6554e-04  -2.7458e-03   3.4436e-03   2.0331e-02   5.6392e-03  -5.1166e-03   2.5502e-05  -4.8848e-04  -1.4185e-03   1.8772e-03   2.6426e-03  -4.5580e-02  -1.3725e-02   2.2599e-02
  -8.9723e-03  -2.1332e-03   1.7374e-03  -9.6642e-03   2.5517e-03  -5.8601e-03   5.1436e-01   1.9889e-03  -6.0731e-03  -1.2975e-03  -5.1619e-03  -7.9004e-04   5.5368e-03  -6.2174e-03  -5.5697e-03  -1.0543e-03  -2.2680e-03   3.0088e-04  -9.6879e-03  -9.6969e-03  -4.6230e-03  -3.7649e-03   4.2647e-02  -1.4789e-02
   7.0903e-03   3.3400e-03   5.7145e-03  -6.7354e-03  -1.5764e-03  -1.6380e-02   1.9889e-03   5.2069e-01   4.8448e-03  -1.2877e-03  -3.2330e-03  -6.5089e-04  -6.9100e-03  -1.0138e-03   1.5994e-03   3.3147e-03  -1.0804e-03  -1.8286e-04  -5.9069e-03  -1.6107e-02  -3.9886e-03  -3.6435e-02  -1.8599e-02   1.2344e-02
  -5.8320e-03   7.5941e-03  -7.3860e-03   9.3603e-04   2.1379e-03  -2.2860e-03  -6.0731e-03   4.8448e-03   5.4309e-01   9.4271e-03  -1.9084e-03   2.3924e-03  -1.8518e-02   3.9770e-03   8.1491e-03   3.6022e-03  -1.7225e-02   7.5411e-03   2.2575e-02  -6.9166e-03   4.4681e-04  -1.0826e-02   1.3039e-02  -2.7264e-02
  -1.4498e-03  -2.8737e-03   3.0904e-04  -3.3405e-03   4.0806e-03   9.8574e-04  -1.2975e-03  -1.2877e-03   9.4271e-03   5.2714e-01  -9.6873e-03   4.4034e-03   1.0887e-03  -7.8446e-04   4.3267e-03   5.6064e-03  -1.8295e-02   3.5663e-03  -1.2503e-02  -2.9104e-02   3.8628e-05   6.8112e-03   6.1955e-03  -6.3092e-03
   4.8141e-03   1.2425e-02  -1.2159e-02   9.0329e-04   9.1642e-03   8.6554e-04  -5.1619e-03  -3.2330e-03  -1.9084e-03  -9.6873e-03   5.4616e-01  -3.5061e-03   3.6269e-03  -1.2559e-03   1.2549e-03  -3.4224e-03   1.2617e-02  -6.1751e-03  -4.9205e-03  -2.9348e-03   3.6767e-03   7.9439e-03  -9.0748e-04   2.1536e-03
  -5.9132e-04  -7.3977e-03  -3.1744e-03  -2.0847e-03   1.9671e-03  -2.7458e-03  -7.9004e-04  -6.5089e-04   2.3924e-03   4.4034e-03  -3.5061e-03   5.7334e-01   2.3039e-03   4.6423e-03  -2.5246e-03   8.8124e-04  -2.0073e-03  -1.7480e-03   7.8509e-05   2.5907e-03  -1.6777e-02  -6.2286e-03  -1.7872e-03   4.1559e-03
  -1.6386e-03   4.0498e-03  -5.4671e-03   4.2951e-04  -1.8745e-04   3.4436e-03   5.5368e-03  -6.9100e-03  -1.8518e-02   1.0887e-03   3.6269e-03   2.3039e-03   5.7607e-01  -9.0792e-03  -4.6353e-03   4.8628e-03  -7.2237e-03   1.7185e-03   1.0022e-02  -2.2795e-03  -1.4811e-03  -1.0159e-02  -1.5961e-03  -1.1950e-02
  -1.9627e-03  -5.2951e-03   9.2373e-04   9.4863e-03  -1.2283e-03   2.0331e-02  -6.2174e-03  -1.0138e-03   3.9770e-03  -7.8446e-04  -1.2559e-03   4.6423e-03  -9.0792e-03   5.6057e-01   3.5715e-03   1.5257e-03   2.3896e-03  -7.8808e-04  -9.2022e-03  -1.2750e-02  -8.4180e-04   1.3594e-02   9.1698e-03  -4.0641e-03
  -1.1627e-02   1.6467e-03   9.8770e-05  -1.0196e-02   1.3050e-02   5.6392e-03  -5.5697e-03   1.5994e-03   8.1491e-03   4.3267e-03   1.2549e-03  -2.5246e-03  -4.6353e-03   3.5715e-03   5.5672e-01   2.6558e-04  -1.6422e-03  -7.7253e-04  -5.0015e-03   8.6532e-03   1.3360e-03  -4.9426e-03   1.1744e-02  -5.5985e-03
  -3.1441e-03  -4.5117e-04   7.9088e-03  -8.2442e-04   1.5245e-03  -5.1166e-03  -1.0543e-03   3.3147e-03   3.6022e-03   5.6064e-03  -3.4224e-03   8.8124e-04   4.8628e-03   1.5257e-03   2.6558e-04   5.8527e-01  -3.8962e-03   1.7874e-03   7.9205e-04   3.4780e-03   6.8617e-03   1.4120e-03  -1.0523e-03  -2.8590e-03
  -3.2142e-03  -3.3138e-03   2.9508e-03   3.0821e-03   1.5010e-03   2.5502e-05  -2.2680e-03  -1.0804e-03  -1.7225e-02  -1.8295e-02   1.2617e-02  -2.0073e-03  -7.2237e-03   2.3896e-03  -1.6422e-03  -3.8962e-03   5.8515e-01  -1.5515e-04  -2.8270e-04  -9.9104e-04  -2.3808e-03  -4.6275e-03   6.5288e-03  -1.3939e-02
   5.0357e-05   1.0803e-03  -4.6169e-03   2.3495e-03   6.9444e-03  -4.8848e-04   3.0088e-04  -1.8286e-04   7.5411e-03   3.5663e-03  -6.1751e-03  -1.7480e-03   1.7185e-03  -7.8808e-04  -7.7253e-04   1.7874e-03  -1.5515e-04   5.8888e-01   3.1500e-04  -9.3356e-04  -3.7085e-03   2.1948e-03  -6.8911e-04  -3.9561e-03
  -3.5449e-02  -1.0734e-02   1.2356e-02  -4.2104e-03   1.9239e-03  -1.4185e-03  -9.6879e-03  -5.9069e-03   2.2575e-02  -1.2503e-02  -4.9205e-03   7.8509e-05   1.0022e-02  -9.2022e-03  -5.0015e-03   7.9205e-04  -2.8270e-04   3.1500e-04   7.4553e-01   9.6461e-03   1.4192e-03   9.5751e-03   4.8555e-03  -8.9637e-02
   2.7018e-02   6.5524e-03  -4.3671e-03   5.1066e-03  -8.3903e-03   1.8772e-03  -9.6969e-03  -1.6107e-02  -6.9166e-03  -2.9104e-02  -2.9348e-03   2.5907e-03  -2.2795e-03  -1.2750e-02   8.6532e-03   3.4780e-03  -9.9104e-04  -9.3356e-04   9.6461e-03   7.4541e-01  -5.3273e-04   1.9456e-02  -1.5962e-02   4.3824e-02
   7.4456e-04  -2.8264e-02  -1.8831e-02  -1.4325e-02  -1.1087e-02   2.6426e-03  -4.6230e-03  -3.9886e-03   4.4681e-04   3.8628e-05   3.6767e-03  -1.6777e-02  -1.4811e-03  -8.4180e-04   1.3360e-03   6.8617e-03  -2.3808e-03  -3.7085e-03   1.4192e-03  -5.3273e-04   7.8533e-01  -1.4542e-03  -4.5780e-03  -4.3658e-03
   3.4033e-03   1.0724e-03   1.4889e-02  -3.5344e-02   5.1247e-03  -4.5580e-02  -3.7649e-03  -3.6435e-02  -1.0826e-02   6.8112e-03   7.9439e-03  -6.2286e-03  -1.0159e-02   1.3594e-02  -4.9426e-03   1.4120e-03  -4.6275e-03   2.1948e-03   9.5751e-03   1.9456e-02  -1.4542e-03   7.5345e-01   1.3721e-02   4.6739e-02
   1.2980e-02   2.5489e-03  -7.6020e-03   2.7767e-02  -3.1806e-02  -1.3725e-02   4.2647e-02  -1.8599e-02   1.3039e-02   6.1955e-03  -9.0748e-04  -1.7872e-03  -1.5961e-03   9.1698e-03   1.1744e-02  -1.0523e-03   6.5288e-03  -6.8911e-04   4.8555e-03  -1.5962e-02  -4.5780e-03   1.3721e-02   7.3161e-01  -3.7506e-02
  -1.7093e-01   2.5248e-02  -4.1926e-02   4.2222e-02  -1.4823e-02   2.2599e-02  -1.4789e-02   1.2344e-02  -2.7264e-02  -6.3092e-03   2.1536e-03   4.1559e-03  -1.1950e-02  -4.0641e-03  -5.5985e-03  -2.8590e-03  -1.3939e-02  -3.9561e-03  -8.9637e-02   4.3824e-02  -4.3658e-03   4.6739e-02  -3.7506e-02   9.2666e-02

