                  Welcome to Q-Chem
     A Quantum Leap Into The Future Of Chemistry


 Q-Chem 4.3, Q-Chem, Inc., Pleasanton, CA (2015)

 Y. Shao,  Z. Gan,  E. Epifanovsky,  A. T. B. Gilbert,  M. Wormit,  
 J. Kussmann,  A. W. Lange,  A. Behn,  J. Deng,  X. Feng,  D. Ghosh,  
 M. Goldey,  P. R. Horn,  L. D. Jacobson,  I. Kaliman,  R. Z. Khaliullin,  
 T. Kus,  A. Landau,  J. Liu,  E. I. Proynov,  Y. M. Rhee,  R. M. Richard,  
 M. A. Rohrdanz,  R. P. Steele,  E. J. Sundstrom,  H. L. Woodcock III,  
 P. M. Zimmerman,  D. Zuev,  B. Albrecht,  E. Alguire,  B. Austin,  
 S. A. Baeppler,  G. J. O. Beran,  Y. A. Bernard,  E. Berquist,  
 K. Brandhorst,  K. B. Bravaya,  S. T. Brown,  D. Casanova,  C.-M. Chang,  
 Y. Chen,  S. H. Chien,  K. D. Closser,  D. L. Crittenden,  M. Diedenhofen,  
 R. A. DiStasio Jr.,  H. Do,  A. D. Dutoi,  R. G. Edgar,  P.-T. Fang,  
 S. Fatehi,  Q. Feng,  L. Fusti-Molnar,  A. Ghysels,  
 A. Golubeva-Zadorozhnaya,  J. Gomes,  A. Gunina,  M. W. D. Hanson-Heine,  
 P. H. P. Harbach,  A. W. Hauser,  E. G. Hohenstein,  Z. C. Holden,  K. Hui,  
 T.-C. Jagau,  H. Ji,  B. Kaduk,  K. Khistyaev,  Jaehoon Kim,  Jihan Kim,  
 R. A. King,  P. Klunzinger,  D. Kosenkov,  T. Kowalczyk,  C. M. Krauter,  
 K. U. Lao,  A. Laurent,  K. V. Lawler,  S. Lehtola,  S. V. Levchenko,  
 C. Y. Lin,  Y.-S. Lin,  F. Liu,  E. Livshits,  R. C. Lochan,  A. Luenser,  
 P. Manohar,  S. F. Manzer,  S.-P. Mao,  N. Mardirossian,  A. V. Marenich,  
 L. A. Martinez-Martinez,  S. A. Maurer,  N. J. Mayhall,  K. Nanda,  
 C. M. Oana,  R. Olivares-Amaya,  D. P. O'Neill,  J. A. Parkhill,  
 T. M. Perrine,  R. Peverati,  P. A. Pieniazek,  F. Plasser,  A. Prociuk,  
 D. R. Rehn,  E. Rosta,  N. J. Russ,  N. Sergueev,  S. M. Sharada,  
 S. Sharma,  D. W. Small,  A. Sodt,  T. Stauch,  T. Stein,  D. Stuck,  
 Y.-C. Su,  A. J. W. Thom,  T. Tsuchimochi,  L. Vogt,  O. Vydrov,  T. Wang,  
 M. A. Watson,  J. Wenzel,  A. White,  C. F. Williams,  V. Vanovschi,  
 S. Yeganeh,  S. R. Yost,  Z.-Q. You,  I. Y. Zhang,  X. Zhang,  Y. Zhao,  
 B. R. Brooks,  G. K. L. Chan,  D. M. Chipman,  C. J. Cramer,  
 W. A. Goddard III,  M. S. Gordon,  W. J. Hehre,  A. Klamt,  
 H. F. Schaefer III,  M. W. Schmidt,  C. D. Sherrill,  D. G. Truhlar,  
 A. Warshel,  X. Xu,  A. Aspuru-Guzik,  R. Baer,  A. T. Bell,  N. A. Besley,  
 J.-D. Chai,  A. Dreuw,  B. D. Dunietz,  T. R. Furlani,  S. R. Gwaltney,  
 C.-P. Hsu,  Y. Jung,  J. Kong,  D. S. Lambrecht,  W. Liang,  C. Ochsenfeld,  
 V. A. Rassolov,  L. V. Slipchenko,  J. E. Subotnik,  T. Van Voorhis,  
 J. M. Herbert,  A. I. Krylov,  P. M. W. Gill,  M. Head-Gordon

 Contributors to earlier versions of Q-Chem not listed above: 
 R. D. Adamson,  J. Baker,  E. F. C. Byrd,  A. K. Chakraborty,  C.-L. Cheng,  
 H. Dachsel,  R. J. Doerksen,  G. Hawkins,  A. Heyden,  S. Hirata,  
 G. Kedziora,  F. J. Keil,  C. Kelley,  P. P. Korambath,  W. Kurlancheek,  
 A. M. Lee,  M. S. Lee,  D. Liotard,  I. Lotan,  P. E. Maslen,  N. Nair,  
 D. Neuhauser,  R. Olson,  B. Peters,  J. Ritchie,  N. E. Schultz,  
 N. Shenvi,  A. C. Simmonett,  K. S. Thanthiriwatte,  Q. Wu,  W. Zhang

 Please cite Q-Chem as follows:
 Y. Shao et al., Mol. Phys. 113, 184-215 (2015)
 DOI: 10.1080/00268976.2014.952696

 Q-Chem 4.3.0 for Intel X86 EM64T Linux

 Parts of Q-Chem use Armadillo 5.200.1 (Boston Tea Smuggler).
 http://arma.sourceforge.net/

 Q-Chem begins on Wed Mar 29 10:36:59 2017  


Host: 0

     Scratch files written to /home/nmayhall/scratch_qchem/shrink1//
 Dec1416 |home|nmayhall|qcSoftware|qchem|qchem.svn-casman|libmdc|qstr_RNUM -1
 Using version located at /home/nmayhall/qcSoftware/qchem/qchem.svn-casman/bin/qchem


Total Memory Limit in MB = 2000
Mega-Array Size in MB = 62

Checking the input file for inconsistencies... 	...done.

 Q-Chem warning in module /home/nmayhall/qcSoftware/qchem/qchem.svn-casman/forms1/BasisType.C, line 1452:

 You are not using the predefined 5D/6D in this basis set.

Finally everything over in PARseQInput

--------------------------------------------------------------
User input:
--------------------------------------------------------------
$rem
	exchange 		hf
	unrestricted		1
	basis			6-31g*	
	aux_basis		rimp2-vdz
	scf_guess		core	
	scf_convergence		8
	purecart		1111

	symmetry		0
	sym_ignore		1

	!correlation		sf-cas
	!cas_n_spin_flip		1
	!cas_local		1
	gui			2
$end

$development
	1sf_heis_projection	1
$end

$molecule
0 25
H	-2.562732	3.035466	-0.250218
H	-2.324412	1.479321	0.167121
H	-3.775914	1.956195	-0.397314
H	-3.279717	2.428479	1.083195
H	0.82062	-0.621738	-0.049419
H	-0.695538	-0.031374	-0.124002
H	-0.410805	-1.442979	0.635913
H	-0.295542	-1.352313	-0.988488
H	0.964206	1.86741	0.295245
H	-0.158292	2.231487	-0.828693
H	0.997758	3.316248	-0.451593
H	-0.184131	2.978604	0.619155
H	-2.837007	-1.639206	-0.659853
H	-2.962278	-0.822438	0.745056
H	-4.105521	-1.90683	0.32868
H	-3.985956	-0.496512	-0.480519
H	-0.045162	0.790578	2.200734
H	-1.217601	1.888731	2.47995
H	-0.871011	0.761751	3.605823
H	-1.607913	0.328176	2.218374
H	-0.77148	0.645624	-2.570265
H	-2.260566	0.303921	-2.003247
H	-2.046771	0.627192	-3.586077
H	-1.900341	1.818954	-2.482938
He	10	10	10	
He	-10	10	10	
$end


--------------------------------------------------------------
 ----------------------------------------------------------------
             Standard Nuclear Orientation (Angstroms)
    I     Atom           X                Y                Z
 ----------------------------------------------------------------
    1      H      -2.5627320000     3.0354660000    -0.2502180000
    2      H      -2.3244120000     1.4793210000     0.1671210000
    3      H      -3.7759140000     1.9561950000    -0.3973140000
    4      H      -3.2797170000     2.4284790000     1.0831950000
    5      H       0.8206200000    -0.6217380000    -0.0494190000
    6      H      -0.6955380000    -0.0313740000    -0.1240020000
    7      H      -0.4108050000    -1.4429790000     0.6359130000
    8      H      -0.2955420000    -1.3523130000    -0.9884880000
    9      H       0.9642060000     1.8674100000     0.2952450000
   10      H      -0.1582920000     2.2314870000    -0.8286930000
   11      H       0.9977580000     3.3162480000    -0.4515930000
   12      H      -0.1841310000     2.9786040000     0.6191550000
   13      H      -2.8370070000    -1.6392060000    -0.6598530000
   14      H      -2.9622780000    -0.8224380000     0.7450560000
   15      H      -4.1055210000    -1.9068300000     0.3286800000
   16      H      -3.9859560000    -0.4965120000    -0.4805190000
   17      H      -0.0451620000     0.7905780000     2.2007340000
   18      H      -1.2176010000     1.8887310000     2.4799500000
   19      H      -0.8710110000     0.7617510000     3.6058230000
   20      H      -1.6079130000     0.3281760000     2.2183740000
   21      H      -0.7714800000     0.6456240000    -2.5702650000
   22      H      -2.2605660000     0.3039210000    -2.0032470000
   23      H      -2.0467710000     0.6271920000    -3.5860770000
   24      H      -1.9003410000     1.8189540000    -2.4829380000
   25      He     10.0000000000    10.0000000000    10.0000000000
   26      He    -10.0000000000    10.0000000000    10.0000000000
 ----------------------------------------------------------------
 Nuclear Repulsion Energy =    48.5067306103 hartrees
 There are       26 alpha and        2 beta electrons
 Requested basis set is 6-31G(d)
 There are 52 shells and 52 basis functions

Total QAlloc Memory Limit   2000 MB
Mega-Array Size        61 MB
MEM_STATIC part        62 MB

finished with qalloc call

 Q-Chem warning in module /home/nmayhall/qcSoftware/qchem/qchem.svn-casman/forms1/BasisType.C, line 1375:

 SAD: How to set up polarization functions for non-Pople basis?

 Requested basis set is rimp2-VDZ
 There are 154 shells and 354 basis functions
 Job number = 2, Threshold = 1.00E-11
Integral type ranges set in mkLRange.C for JobNum: 2  <1-7|1-7>
Symmetry turned off temporarily
 Using the largest function pair in Schwarz integrals
Total number of integrals generated =            2509
Symmetry turned back on
 A cutoff of  1.0D-11 yielded   1099 shell pairs
 There are      1099 function pairs
 Job number = 11, Threshold = 1.00E-11
Integral type ranges set in mkLRange.C for JobNum: 11  <1-1|8-8>

 -------------------------------------------------------
 OpenMP Integral Computing Module                       
 Release: version 1.0, May 2013, Q-Chem Inc. Pittsburgh 
 -------------------------------------------------------
 Integral Job Info:
 Integral job number is                      11
 Integral operator is                         1
 short-range coefficients                     0
 long-range coefficients              100000000
 Omega coefficients                           0
 if combine SR and LR in K                    0
 Integral screening is                        0
 Integral computing path is                   2
 max size of driver memory is            800000
 size of driver memory is                 11780
 size of scratch memory is               800000
 max col of scratch BK array                289
 max len of scratch array in speh3            1
 max len of scratch index in speh4            2
 max int batch size is                      520
 min int batch size is                       52
 fixed nKL is                               520
 max L of basis functions is                  0
 order of int derivative is                   0
 number of shells is                         52
 number of basis is                          52
 number of cartesian basis is                52
 number of contracted shell pairs          1099
 number of primitive shell pairs           2857
 maxK2 (contraction) of shell pair            9
 max number of K2 of shell pair               1
 max number of CS2 of shell pair            579
 max number of PS2 of shell pair           1737
 mem total for path MDJ                   11964
 -------------------------------------------------------
 Smallest overlap matrix eigenvalue = 1.38E-01
 Multipole matrices computed through 2nd order

  Scale SEOQF with 1.000000e-02/1.000000e-02/1.000000e-02

 Standard Electronic Orientation quadrupole field applied
 Nucleus-field energy     =     0.0000000002 hartrees
GuessMan:  IGuess = 1
 Guess MOs from core Hamiltonian diagonalization
scfman initvdwdat 
 An unrestricted Hartree-Fock SCF calculation will be
 performed using Pulay DIIS extrapolation
 SCF converges when DIIS error is below 1.0E-08
Finding J and K together
 Job number = 22, Threshold = 1.00E-11
Integral type ranges set in mkLRange.C for JobNum: 22  <1-1|1-1>
Storing 300.80% of integrals
Total number of integrals generated =          565937
 MakeJK  time:  CPU       0.14 s  wall       0.14 s
Fock build time:  0.14 s (CPU) 0.14 s (wall)
DIIS Errors:  Max 3.83E-01 RMS 3.19E-02

Current DIIS subspace size = 1
REM_GRID_RESTART_DIIS = 0

 ---------------------------------------
  Cycle       Energy         DIIS Error
 ---------------------------------------
    1      -6.8217334105      3.19E-02  00000
Finding J and K together
 Job number = 22, Threshold = 1.00E-11
Integral type ranges set in mkLRange.C for JobNum: 22  <1-1|1-1>
Storing 300.80% of integrals
Reusing in-core integrals buffer for job 22
 MakeJK  time:  CPU       0.03 s  wall       0.03 s
Fock build time:  0.03 s (CPU) 0.03 s (wall)
DIIS Errors:  Max 4.99E-01 RMS 2.06E-02

Current DIIS subspace size = 2
REM_GRID_RESTART_DIIS = 0

    2     -12.6924860463      2.06E-02  00000
Finding J and K together
 Job number = 22, Threshold = 1.00E-11
Integral type ranges set in mkLRange.C for JobNum: 22  <1-1|1-1>
Storing 300.80% of integrals
Reusing in-core integrals buffer for job 22
 MakeJK  time:  CPU       0.03 s  wall       0.03 s
Fock build time:  0.03 s (CPU) 0.03 s (wall)
DIIS Errors:  Max 5.89E-02 RMS 3.63E-03

Current DIIS subspace size = 3
REM_GRID_RESTART_DIIS = 0

    3     -16.9113531825      3.63E-03  00000
Finding J and K together
 Job number = 22, Threshold = 1.00E-11
Integral type ranges set in mkLRange.C for JobNum: 22  <1-1|1-1>
Storing 300.80% of integrals
Reusing in-core integrals buffer for job 22
 MakeJK  time:  CPU       0.03 s  wall       0.03 s
Fock build time:  0.03 s (CPU) 0.03 s (wall)
DIIS Errors:  Max 2.18E-02 RMS 1.18E-03

Current DIIS subspace size = 4
REM_GRID_RESTART_DIIS = 0

    4     -16.9232435549      1.18E-03  00000
Finding J and K together
 Job number = 22, Threshold = 1.00E-11
Integral type ranges set in mkLRange.C for JobNum: 22  <1-1|1-1>
Storing 300.80% of integrals
Reusing in-core integrals buffer for job 22
 MakeJK  time:  CPU       0.03 s  wall       0.03 s
Fock build time:  0.03 s (CPU) 0.03 s (wall)
DIIS Errors:  Max 6.88E-03 RMS 2.90E-04

Current DIIS subspace size = 5
REM_GRID_RESTART_DIIS = 0

    5     -16.9245196471      2.90E-04  00000
Finding J and K together
 Job number = 22, Threshold = 1.00E-11
Integral type ranges set in mkLRange.C for JobNum: 22  <1-1|1-1>
Storing 300.80% of integrals
Reusing in-core integrals buffer for job 22
 MakeJK  time:  CPU       0.03 s  wall       0.03 s
Fock build time:  0.03 s (CPU) 0.03 s (wall)
DIIS Errors:  Max 2.68E-03 RMS 1.11E-04

Current DIIS subspace size = 6
REM_GRID_RESTART_DIIS = 0

    6     -16.9245589212      1.11E-04  00000
Finding J and K together
 Job number = 22, Threshold = 1.00E-11
Integral type ranges set in mkLRange.C for JobNum: 22  <1-1|1-1>
Storing 300.80% of integrals
Reusing in-core integrals buffer for job 22
 MakeJK  time:  CPU       0.03 s  wall       0.03 s
Fock build time:  0.03 s (CPU) 0.03 s (wall)
DIIS Errors:  Max 1.23E-04 RMS 5.43E-06

Current DIIS subspace size = 7
REM_GRID_RESTART_DIIS = 0

    7     -16.9245642211      5.43E-06  00000
Finding J and K together
 Job number = 22, Threshold = 1.00E-11
Integral type ranges set in mkLRange.C for JobNum: 22  <1-1|1-1>
Storing 300.80% of integrals
Reusing in-core integrals buffer for job 22
 MakeJK  time:  CPU       0.03 s  wall       0.03 s
Fock build time:  0.03 s (CPU) 0.03 s (wall)
DIIS Errors:  Max 3.44E-06 RMS 2.07E-07

Current DIIS subspace size = 8
REM_GRID_RESTART_DIIS = 0

    8     -16.9245643791      2.07E-07  00000
Finding J and K together
 Job number = 22, Threshold = 1.00E-11
Integral type ranges set in mkLRange.C for JobNum: 22  <1-1|1-1>
Storing 300.80% of integrals
Reusing in-core integrals buffer for job 22
 MakeJK  time:  CPU       0.03 s  wall       0.03 s
Fock build time:  0.03 s (CPU) 0.03 s (wall)
DIIS Errors:  Max 5.04E-07 RMS 2.60E-08

Current DIIS subspace size = 9
REM_GRID_RESTART_DIIS = 0

    9     -16.9245644088      2.60E-08  00000
Finding J and K together
 Job number = 22, Threshold = 1.00E-11
Integral type ranges set in mkLRange.C for JobNum: 22  <1-1|1-1>
Storing 300.80% of integrals
Reusing in-core integrals buffer for job 22
 MakeJK  time:  CPU       0.03 s  wall       0.03 s
Fock build time:  0.03 s (CPU) 0.03 s (wall)
DIIS Errors:  Max 1.22E-07 RMS 5.10E-09

Current DIIS subspace size = 10
REM_GRID_RESTART_DIIS = 0

   10     -16.9245644121      5.10E-09  00000 Convergence criterion met
 ---------------------------------------
 <S^2> = 156.0000
 SCF time:  CPU 0.42 s  wall 0.42 s
 SCF   energy in the final basis set = -16.9245644121
 Total energy in the final basis set = -16.9245644121
Symmetry turned off temporarily
 Analysis of SCF Wavefunction

 --------------------------------------------------------------

                    Orbital Energies (a.u.)
 --------------------------------------------------------------

 Alpha MOs
 -- Occupied --
 -0.914  -0.914  -0.820  -0.776  -0.771  -0.768  -0.753  -0.746
 -0.528  -0.504  -0.499  -0.493  -0.486  -0.478  -0.465  -0.446
 -0.443  -0.437  -0.432  -0.427  -0.421  -0.418  -0.416  -0.414
 -0.407  -0.402
 -- Virtual --
  0.790   0.795   0.797   0.799   0.812   0.832   0.849   0.934
  0.945   0.951   0.957   0.963   0.971   0.983   0.992   1.041
  1.055   1.074   1.079   1.244   1.277   1.298   1.328   1.384
  1.400   1.400

 Beta MOs
 -- Occupied --
 -0.914  -0.914
 -- Virtual --
 -0.125  -0.079  -0.072  -0.068  -0.048  -0.038   0.097   0.110
  0.116   0.123   0.127   0.137   0.164   0.188   0.191   0.201
  0.204   0.212   0.222   0.229   0.233   0.234   0.242   0.252
  1.037   1.040   1.043   1.051   1.052   1.072   1.078   1.145
  1.153   1.158   1.161   1.167   1.177   1.188   1.199   1.239
  1.247   1.266   1.270   1.400   1.400   1.433   1.466   1.485
  1.518   1.571
 --------------------------------------------------------------

          Ground-State Mulliken Net Atomic Charges

     Atom                 Charge (a.u.)    Spin (a.u.)
  --------------------------------------------------------
      1 H                    -0.000089       1.000089
      2 H                    -0.000290       1.000290
      3 H                    -0.000015       1.000015
      4 H                     0.000009       0.999991
      5 H                     0.000026       0.999974
      6 H                    -0.000282       1.000282
      7 H                    -0.000099       1.000099
      8 H                    -0.000064       1.000064
      9 H                    -0.000069       1.000069
     10 H                     0.000002       0.999998
     11 H                     0.000199       0.999801
     12 H                    -0.000110       1.000110
     13 H                    -0.000038       1.000038
     14 H                     0.000178       0.999822
     15 H                     0.000157       0.999843
     16 H                     0.000048       0.999952
     17 H                    -0.000122       1.000122
     18 H                    -0.000069       1.000069
     19 H                     0.000228       0.999772
     20 H                     0.000157       0.999843
     21 H                     0.000017       0.999983
     22 H                     0.000024       0.999976
     23 H                     0.000198       0.999802
     24 H                     0.000003       0.999997
     25 He                    0.000000       0.000000
     26 He                    0.000000       0.000000
  --------------------------------------------------------
  Sum of atomic charges =    -0.000000
  Sum of spin   charges =    24.000000

 -----------------------------------------------------------------
                    Cartesian Multipole Moments
 -----------------------------------------------------------------
    Charge (ESU x 10^10)
                 0.0000
    Dipole Moment (Debye)
         X      -0.0046      Y      -0.0024      Z      -0.0012
       Tot       0.0053
    Quadrupole Moments (Debye-Ang)
        XX     -39.1041     XY      -0.2359     YY     -39.1830
        XZ      -0.0438     YZ       0.0487     ZZ     -39.2839
    Octopole Moments (Debye-Ang^2)
       XXX     162.8397    XXY     -47.3737    XYY      55.3179
       YYY    -148.1391    XXZ     -19.1880    XYZ       0.1890
       YYZ     -19.6193    XZZ      56.1009    YZZ     -47.8855
       ZZZ     -61.5435
    Hexadecapole Moments (Debye-Ang^3)
      XXXX   -2279.6334   XXXY      55.1810   XXYY    -707.1962
      XYYY      58.9540   YYYY   -1934.5019   XXXZ     -34.5336
      XXYZ    -205.6401   XYYZ      -3.2013   YYYZ    -629.6009
      XXZZ    -686.7989   XYZZ      27.2012   YYZZ    -627.8323
      XZZZ     -37.5654   YZZZ    -637.7924   ZZZZ   -1902.4108
 -----------------------------------------------------------------
 JobOver = TRUE
Archival summary:
1\1\sinatra\SP\HF\6-31G*\e224(K)\nmayhall\WedMar2910:37:002017WedMar2910:37:002017\0\\#,HF,6-31G*,\\0,25\H\H,1,1.62824\H,1,1.62856,2,60.1059\H,1,1.62875,2,60.1063,3,70.5779,0\H,1,2.24058,2,130.619,3,-135.572,0\H,5,1.62867,1,135.832,2,-163.289,0\H,5,1.62871,1,153.178,2,-46.5163,0\H,5,1.62876,1,143.154,2,96.3597,0\H,1,2.43018,2,154.68,3,105.089,0\H,9,1.62945,1,99.5424,2,67.077,0\H,9,1.62953,1,135.202,2,10.4233,0\H,9,1.62966,1,75.1825,2,11.7126,0\H,10,2.39133,9,119.295,1,16.0119,0\H,13,1.62975,10,114.521,9,-10.1986,0\H,14,1.62973,13,60.0216,10,-134.581,0\H,14,1.62982,13,60.0287,10,-64.0577,0\H,14,2.30844,13,136.073,10,60.081,0\H,17,1.62978,14,138.485,13,1.57655,0\H,17,1.62981,14,154.99,13,131.255,0\H,17,1.6299,14,139.009,13,-97.0871,0\H,20,2.43161,17,95.3927,14,66.9462,0\H,21,1.62948,20,163.342,17,-1.99129,0\H,21,1.62959,20,136.572,17,173.248,0\H,21,1.62962,20,125.198,17,-105.025,0\He,7,13.4907,5,172.311,1,-16.2482,0\He,11,15.328,9,149.851,1,38.8882,0\\HF=-16.9245644\\@

 Total job time:  0.48s(wall), 0.48s(cpu) 
 Wed Mar 29 10:37:00 2017

        *************************************************************
        *                                                           *
        *  Thank you very much for using Q-Chem.  Have a nice day.  *
        *                                                           *
        *************************************************************


*** MISSION COMPLETED -- STARFLEET OUT ***

 
User input: 2 of 2 
 
                  Welcome to Q-Chem
     A Quantum Leap Into The Future Of Chemistry


 Q-Chem 4.3, Q-Chem, Inc., Pleasanton, CA (2015)

 Y. Shao,  Z. Gan,  E. Epifanovsky,  A. T. B. Gilbert,  M. Wormit,  
 J. Kussmann,  A. W. Lange,  A. Behn,  J. Deng,  X. Feng,  D. Ghosh,  
 M. Goldey,  P. R. Horn,  L. D. Jacobson,  I. Kaliman,  R. Z. Khaliullin,  
 T. Kus,  A. Landau,  J. Liu,  E. I. Proynov,  Y. M. Rhee,  R. M. Richard,  
 M. A. Rohrdanz,  R. P. Steele,  E. J. Sundstrom,  H. L. Woodcock III,  
 P. M. Zimmerman,  D. Zuev,  B. Albrecht,  E. Alguire,  B. Austin,  
 S. A. Baeppler,  G. J. O. Beran,  Y. A. Bernard,  E. Berquist,  
 K. Brandhorst,  K. B. Bravaya,  S. T. Brown,  D. Casanova,  C.-M. Chang,  
 Y. Chen,  S. H. Chien,  K. D. Closser,  D. L. Crittenden,  M. Diedenhofen,  
 R. A. DiStasio Jr.,  H. Do,  A. D. Dutoi,  R. G. Edgar,  P.-T. Fang,  
 S. Fatehi,  Q. Feng,  L. Fusti-Molnar,  A. Ghysels,  
 A. Golubeva-Zadorozhnaya,  J. Gomes,  A. Gunina,  M. W. D. Hanson-Heine,  
 P. H. P. Harbach,  A. W. Hauser,  E. G. Hohenstein,  Z. C. Holden,  K. Hui,  
 T.-C. Jagau,  H. Ji,  B. Kaduk,  K. Khistyaev,  Jaehoon Kim,  Jihan Kim,  
 R. A. King,  P. Klunzinger,  D. Kosenkov,  T. Kowalczyk,  C. M. Krauter,  
 K. U. Lao,  A. Laurent,  K. V. Lawler,  S. Lehtola,  S. V. Levchenko,  
 C. Y. Lin,  Y.-S. Lin,  F. Liu,  E. Livshits,  R. C. Lochan,  A. Luenser,  
 P. Manohar,  S. F. Manzer,  S.-P. Mao,  N. Mardirossian,  A. V. Marenich,  
 L. A. Martinez-Martinez,  S. A. Maurer,  N. J. Mayhall,  K. Nanda,  
 C. M. Oana,  R. Olivares-Amaya,  D. P. O'Neill,  J. A. Parkhill,  
 T. M. Perrine,  R. Peverati,  P. A. Pieniazek,  F. Plasser,  A. Prociuk,  
 D. R. Rehn,  E. Rosta,  N. J. Russ,  N. Sergueev,  S. M. Sharada,  
 S. Sharma,  D. W. Small,  A. Sodt,  T. Stauch,  T. Stein,  D. Stuck,  
 Y.-C. Su,  A. J. W. Thom,  T. Tsuchimochi,  L. Vogt,  O. Vydrov,  T. Wang,  
 M. A. Watson,  J. Wenzel,  A. White,  C. F. Williams,  V. Vanovschi,  
 S. Yeganeh,  S. R. Yost,  Z.-Q. You,  I. Y. Zhang,  X. Zhang,  Y. Zhao,  
 B. R. Brooks,  G. K. L. Chan,  D. M. Chipman,  C. J. Cramer,  
 W. A. Goddard III,  M. S. Gordon,  W. J. Hehre,  A. Klamt,  
 H. F. Schaefer III,  M. W. Schmidt,  C. D. Sherrill,  D. G. Truhlar,  
 A. Warshel,  X. Xu,  A. Aspuru-Guzik,  R. Baer,  A. T. Bell,  N. A. Besley,  
 J.-D. Chai,  A. Dreuw,  B. D. Dunietz,  T. R. Furlani,  S. R. Gwaltney,  
 C.-P. Hsu,  Y. Jung,  J. Kong,  D. S. Lambrecht,  W. Liang,  C. Ochsenfeld,  
 V. A. Rassolov,  L. V. Slipchenko,  J. E. Subotnik,  T. Van Voorhis,  
 J. M. Herbert,  A. I. Krylov,  P. M. W. Gill,  M. Head-Gordon

 Contributors to earlier versions of Q-Chem not listed above: 
 R. D. Adamson,  J. Baker,  E. F. C. Byrd,  A. K. Chakraborty,  C.-L. Cheng,  
 H. Dachsel,  R. J. Doerksen,  G. Hawkins,  A. Heyden,  S. Hirata,  
 G. Kedziora,  F. J. Keil,  C. Kelley,  P. P. Korambath,  W. Kurlancheek,  
 A. M. Lee,  M. S. Lee,  D. Liotard,  I. Lotan,  P. E. Maslen,  N. Nair,  
 D. Neuhauser,  R. Olson,  B. Peters,  J. Ritchie,  N. E. Schultz,  
 N. Shenvi,  A. C. Simmonett,  K. S. Thanthiriwatte,  Q. Wu,  W. Zhang

 Please cite Q-Chem as follows:
 Y. Shao et al., Mol. Phys. 113, 184-215 (2015)
 DOI: 10.1080/00268976.2014.952696

 Q-Chem 4.3.0 for Intel X86 EM64T Linux

 Parts of Q-Chem use Armadillo 5.200.1 (Boston Tea Smuggler).
 http://arma.sourceforge.net/

 Q-Chem begins on Wed Mar 29 10:37:00 2017  


Host: 0

     Scratch files written to /home/nmayhall/scratch_qchem/shrink1//
 Dec1416 |home|nmayhall|qcSoftware|qchem|qchem.svn-casman|libmdc|qstr_RNUM -1
 Using version located at /home/nmayhall/qcSoftware/qchem/qchem.svn-casman/bin/qchem

 Turning off symmetry for CASMAN

Total Memory Limit in MB = 2000
Mega-Array Size in MB = 62

Checking the input file for inconsistencies... 	...done.

 Q-Chem warning in module /home/nmayhall/qcSoftware/qchem/qchem.svn-casman/forms1/BasisType.C, line 1452:

 You are not using the predefined 5D/6D in this basis set.

Finally everything over in PARseQInput

--------------------------------------------------------------
User input:
--------------------------------------------------------------
$rem
	exchange 		hf
	unrestricted		0
	basis			6-31g*	
	aux_basis		rimp2-vdz
	scf_guess		read	
	scf_convergence		8
	purecart		1111

	symmetry		0
	sym_ignore		1

	correlation		sf-cas
	cas_n_spin_flip		1
	cas_local		1
	gui			2
$end

$development
	1sf_heis_projection	1
	scf_corresponding_orbs	1
        heisenberg_n_roots	0
$end

$molecule
read
$end

--------------------------------------------------------------
 ----------------------------------------------------------------
             Standard Nuclear Orientation (Angstroms)
    I     Atom           X                Y                Z
 ----------------------------------------------------------------
    1      H      -2.5627320000     3.0354660000    -0.2502180000
    2      H      -2.3244120000     1.4793210000     0.1671210000
    3      H      -3.7759140000     1.9561950000    -0.3973140000
    4      H      -3.2797170000     2.4284790000     1.0831950000
    5      H       0.8206200000    -0.6217380000    -0.0494190000
    6      H      -0.6955380000    -0.0313740000    -0.1240020000
    7      H      -0.4108050000    -1.4429790000     0.6359130000
    8      H      -0.2955420000    -1.3523130000    -0.9884880000
    9      H       0.9642060000     1.8674100000     0.2952450000
   10      H      -0.1582920000     2.2314870000    -0.8286930000
   11      H       0.9977580000     3.3162480000    -0.4515930000
   12      H      -0.1841310000     2.9786040000     0.6191550000
   13      H      -2.8370070000    -1.6392060000    -0.6598530000
   14      H      -2.9622780000    -0.8224380000     0.7450560000
   15      H      -4.1055210000    -1.9068300000     0.3286800000
   16      H      -3.9859560000    -0.4965120000    -0.4805190000
   17      H      -0.0451620000     0.7905780000     2.2007340000
   18      H      -1.2176010000     1.8887310000     2.4799500000
   19      H      -0.8710110000     0.7617510000     3.6058230000
   20      H      -1.6079130000     0.3281760000     2.2183740000
   21      H      -0.7714800000     0.6456240000    -2.5702650000
   22      H      -2.2605660000     0.3039210000    -2.0032470000
   23      H      -2.0467710000     0.6271920000    -3.5860770000
   24      H      -1.9003410000     1.8189540000    -2.4829380000
   25      He     10.0000000000    10.0000000000    10.0000000000
   26      He    -10.0000000000    10.0000000000    10.0000000000
 ----------------------------------------------------------------
 Nuclear Repulsion Energy =    48.5067306103 hartrees
 There are       26 alpha and        2 beta electrons
 Requested basis set is 6-31G(d)
 There are 52 shells and 52 basis functions

Total QAlloc Memory Limit   2000 MB
Mega-Array Size        61 MB
MEM_STATIC part        62 MB

finished with qalloc call

 Q-Chem warning in module /home/nmayhall/qcSoftware/qchem/qchem.svn-casman/forms1/BasisType.C, line 1375:

 SAD: How to set up polarization functions for non-Pople basis?

 Requested basis set is rimp2-VDZ
 There are 154 shells and 354 basis functions
 Job number = 2, Threshold = 1.00E-12
Integral type ranges set in mkLRange.C for JobNum: 2  <1-7|1-7>
Symmetry turned off temporarily
 Using the largest function pair in Schwarz integrals
Total number of integrals generated =            2527
Symmetry turned back on
 A cutoff of  1.0D-12 yielded   1117 shell pairs
 There are      1117 function pairs
 Job number = 11, Threshold = 1.00E-12
Integral type ranges set in mkLRange.C for JobNum: 11  <1-1|8-8>

 -------------------------------------------------------
 OpenMP Integral Computing Module                       
 Release: version 1.0, May 2013, Q-Chem Inc. Pittsburgh 
 -------------------------------------------------------
 Integral Job Info:
 Integral job number is                      11
 Integral operator is                         1
 short-range coefficients                     0
 long-range coefficients              100000000
 Omega coefficients                           0
 if combine SR and LR in K                    0
 Integral screening is                        0
 Integral computing path is                   2
 max size of driver memory is            800000
 size of driver memory is                 11780
 size of scratch memory is               800000
 max col of scratch BK array                289
 max len of scratch array in speh3            1
 max len of scratch index in speh4            2
 max int batch size is                      520
 min int batch size is                       52
 fixed nKL is                               520
 max L of basis functions is                  0
 order of int derivative is                   0
 number of shells is                         52
 number of basis is                          52
 number of cartesian basis is                52
 number of contracted shell pairs          1117
 number of primitive shell pairs           3026
 maxK2 (contraction) of shell pair            9
 max number of K2 of shell pair               1
 max number of CS2 of shell pair            600
 max number of PS2 of shell pair           1800
 mem total for path MDJ                   12216
 -------------------------------------------------------
 Smallest overlap matrix eigenvalue = 1.38E-01
 Multipole matrices computed through 2nd order

  Scale SEOQF with 1.000000e-02/1.000000e-02/1.000000e-02

 Standard Electronic Orientation quadrupole field applied
 Nucleus-field energy     =     0.0000000002 hartrees
GuessMan:  IGuess = 1000
 Guess MOs from SCF MO coefficient file
 Reading MOs from coefficient file
 Reading MOs from coefficient file
scfman initvdwdat 
 A restricted Hartree-Fock SCF calculation will be
 performed using Geometric Direct Minimization
 SCF converges when RMS gradient is below 1.0E-08
Finding J and K together
 Job number = 22, Threshold = 1.00E-12
Integral type ranges set in mkLRange.C for JobNum: 22  <1-1|1-1>
Storing 291.19% of integrals
Total number of integrals generated =          584444
 MakeJK  time:  CPU       0.15 s  wall       0.15 s
Fock build time:  0.15 s (CPU) 0.15 s (wall)
 ---------------------------------------
  Cycle       Energy        RMS Gradient
 ---------------------------------------
    1     -16.9245644124      9.49E-06  00000 Normal BFGS step
Finding J and K together
 Job number = 22, Threshold = 1.00E-12
Integral type ranges set in mkLRange.C for JobNum: 22  <1-1|1-1>
Storing 291.19% of integrals
Reusing in-core integrals buffer for job 22
 MakeJK  time:  CPU       0.03 s  wall       0.03 s
Fock build time:  0.03 s (CPU) 0.03 s (wall)
    2     -16.9245644124      3.15E-10  00000 Convergence criterion met
 ---------------------------------------
 SCF time:  CPU 0.19 s  wall 0.19 s
 Obtaining Corresponding orbitals

 Forming corresponding orbitals block-by-block...
 Size of singly occupied alpha block:      24 : 24.0000
 Size of doubly occupied block:             2 : 2.0000
 Size of singly occupied beta block:        0 : 0.0000
 Size of unoccupied block:                 26 : 26.0000
 Use scf_boys =     0 (Canonical)
                    1 (Boys)
                    2 (Pipek-Mezey)
                    3 (ER)
 Build new fock matrix
 I'm here
 I'm here
 Calling AOints...
 Job number = 22, Threshold = 1.00E-12
Integral type ranges set in mkLRange.C for JobNum: 22  <1-1|1-1>
Storing 291.19% of integrals
 done.
 E(SCF): disk=    -16.924564412409 current=    -16.924564412409 diff=  -3.197e-14
 SCF   energy in the final basis set = -16.9245644124
 Total energy in the final basis set = -16.9245644124
 DevKeyword Parameters: 
 1sf_heis_projection                   1
  heisenberg_n_roots                   0
scf_corresponding_orbs                   1


 ========================================================
                       In SF-CAS-CI                      
 ========================================================
 DevKeyword Parameters: 
 1sf_heis_projection                   1
  heisenberg_n_roots                   0
scf_corresponding_orbs                   1

 Forming orbitals for SF-CAS calculation.
NBas   : 52
NOrb   : 52
NDOcc  : 2
NSOcc  : 24
NDVir  : 26
ISpin  : 0
e_hf: -16.92456441
 Using OPT1 Orbitals: Favg | Favg | Favg 
 A/B mix in Doubly occupied F  : 0.50000000
 A/B mix in Singly occupied F  : 0.50000000
 A/B mix in Doubly unoccupied F: 0.50000000
 Max of F(beta)ds      : 2.459e-16
 Max of F(alpha)sv     : 3.100e-11
 Max of F(average)dv   : 8.111e-12
 Orbital Energies  (D):
    1    -0.91413230    -0.91413230
    2    -0.91413221    -0.91413221
 Orbital Energies  (S):
    3    -0.45980266    -0.45980266
    4    -0.41516609    -0.41516609
    5    -0.40946705    -0.40946705
    6    -0.40580630    -0.40580630
    7    -0.38977130    -0.38977130
    8    -0.38216899    -0.38216899
    9    -0.19546930    -0.19546930
   10    -0.17494136    -0.17494136
   11    -0.17025030    -0.17025030
   12    -0.16404274    -0.16404274
   13    -0.15809516    -0.15809516
   14    -0.14927472    -0.14927472
   15    -0.13178470    -0.13178470
   16    -0.11146371    -0.11146371
   17    -0.10826174    -0.10826174
   18    -0.10127574    -0.10127574
   19    -0.09672192    -0.09672192
   20    -0.09085218    -0.09085218
   21    -0.08336749    -0.08336749
   22    -0.07843753    -0.07843753
   23    -0.07551179    -0.07551179
   24    -0.07519623    -0.07519623
   25    -0.06740947    -0.06740947
   26    -0.06074024    -0.06074024
 Orbital Energies  (V):
   27     0.89152763     0.89152763
   28     0.89579872     0.89579872
   29     0.89899181     0.89899181
   30     0.90437628     0.90437628
   31     0.90994022     0.90994022
   32     0.93094462     0.93094462
   33     0.94378343     0.94378343
   34     1.02134698     1.02134698
   35     1.03164479     1.03164479
   36     1.03653636     1.03653636
   37     1.04191452     1.04191452
   38     1.04862072     1.04862072
   39     1.05618331     1.05618331
   40     1.06878544     1.06878544
   41     1.07893118     1.07893118
   42     1.12734395     1.12734395
   43     1.13612205     1.13612205
   44     1.15516895     1.15516895
   45     1.15973392     1.15973392
   46     1.32836566     1.32836566
   47     1.36167459     1.36167459
   48     1.38182220     1.38182220
   49     1.39985367     1.39985367
   50     1.39985375     1.39985375
   51     1.41389531     1.41389531
   52     1.46836077     1.46836077
 tr(Pa)     :   26.0000000000
 tr(Pb)     :    2.0000000000
 E(core) with new P : -114.45680042
 E(HF) with new P   : -16.92456441
 Difference in Ehf  :  -7.4607e-14

 Number of spin flips: 1
 Use cas_local =    0 (Canonical)
                    1 (Boys)
                    2 (Pipek-Mezey)
                    3 (ER)
 Using Boys orbitals in casman
 
 
 
Calling Get_Boys in C++
 
 
 
Orbital 7 Variance 22.24242745
Orbital 1 Variance 22.45935128
Orbital 21 Variance 24.39845848
Orbital 22 Variance 24.66808357
Orbital 23 Variance 24.74381179
Orbital 24 Variance 25.57279264
Orbital 4 Variance 25.86905629
Orbital 3 Variance 26.10262376
Orbital 20 Variance 26.85150972
Orbital 9 Variance 27.15753217
Orbital 6 Variance 27.40103839
Orbital 12 Variance 27.45063159
Orbital 8 Variance 27.84158036
Orbital 16 Variance 28.30471000
Orbital 14 Variance 28.96817040
Orbital 13 Variance 29.00072726
Orbital 2 Variance 30.60574346
Orbital 10 Variance 32.05445771
Orbital 5 Variance 32.06488458
Orbital 18 Variance 32.61835093
Orbital 11 Variance 33.66829691
Orbital 15 Variance 34.15974065
Orbital 19 Variance 34.54828664
Orbital 17 Variance 36.87819334
          ***** NUMBER OF SADDLE POINTS SO FAR = 0 ******

Initially in boys_jacobi.C before sweep, get_boys, boysval = 262.951860
In BOYS_JACOBI SWEEPS for get_boys, ending in round     6  because max_diff = 8.657406e-07


---> BEGIN 2nd Der Calculation    ******  
Guessing MaxD =  20 and MinD = 10
in get_boys.C: p = 0 guessthresh  43.6938542186 numsofar 36 MinD 10
in get_boys.C: p = 1 guessthresh  43.1938542186 numsofar 19 MinD 10
in get_boys.C: p = 2 guessthresh  42.9438542186 numsofar 10 MinD 10
DimInGuess 10 mineval  42.6938542186 guessthresh  42.9438542186
round 0 sizeofsub 10 eval0 4.198709e+01 diffeval0 1.000410e+05 length_qM 1.192247e+00 thresh 1.000000e-08
round 1 sizeofsub 11 eval0 4.152015e+01 diffeval0 4.669463e-01 length_qM 2.192665e-01 thresh 1.000000e-08
round 2 sizeofsub 12 eval0 4.151909e+01 diffeval0 1.058492e-03 length_qM 1.138589e-01 thresh 1.000000e-08
round 3 sizeofsub 13 eval0 4.151824e+01 diffeval0 8.491868e-04 length_qM 2.059461e-02 thresh 1.000000e-08
round 4 sizeofsub 14 eval0 4.151823e+01 diffeval0 7.428904e-06 length_qM 2.396035e-03 thresh 1.000000e-08
round 5 sizeofsub 15 eval0 4.151823e+01 diffeval0 2.283244e-06 length_qM 6.465872e-03 thresh 1.000000e-08
round 6 sizeofsub 16 eval0 4.151823e+01 diffeval0 2.756562e-06 length_qM 1.555608e-03 thresh 1.000000e-08
round 7 sizeofsub 17 eval0 4.151822e+01 diffeval0 4.443903e-06 length_qM 1.525081e-02 thresh 1.000000e-08
round 8 sizeofsub 18 eval0 4.147095e+01 diffeval0 4.726891e-02 length_qM 6.518988e-01 thresh 1.000000e-08
round 9 sizeofsub 19 eval0 4.146558e+01 diffeval0 5.371905e-03 length_qM 2.718201e-02 thresh 1.000000e-08
round 10 sizeofsub 20 eval0 4.146547e+01 diffeval0 1.124368e-04 length_qM 1.790223e-02 thresh 1.000000e-08
round 11 sizeofsub 11 eval0 4.146481e+01 diffeval0 6.595381e-04 length_qM 1.344249e-01 thresh 1.000000e-08
round 12 sizeofsub 12 eval0 4.146439e+01 diffeval0 4.252734e-04 length_qM 3.786230e-02 thresh 1.000000e-08
round 13 sizeofsub 13 eval0 4.146390e+01 diffeval0 4.891184e-04 length_qM 1.555039e-01 thresh 1.000000e-08
round 14 sizeofsub 14 eval0 4.146148e+01 diffeval0 2.416322e-03 length_qM 6.638699e-02 thresh 1.000000e-08
round 15 sizeofsub 15 eval0 4.146013e+01 diffeval0 1.351899e-03 length_qM 9.549827e-02 thresh 1.000000e-08
round 16 sizeofsub 16 eval0 4.145566e+01 diffeval0 4.470218e-03 length_qM 1.861635e-01 thresh 1.000000e-08
round 17 sizeofsub 17 eval0 4.145481e+01 diffeval0 8.439742e-04 length_qM 5.759737e-02 thresh 1.000000e-08
round 18 sizeofsub 18 eval0 4.145385e+01 diffeval0 9.609559e-04 length_qM 2.159406e-01 thresh 1.000000e-08
round 19 sizeofsub 19 eval0 4.145265e+01 diffeval0 1.206358e-03 length_qM 4.941139e-02 thresh 1.000000e-08
round 20 sizeofsub 20 eval0 4.145169e+01 diffeval0 9.604674e-04 length_qM 8.659839e-02 thresh 1.000000e-08
round 21 sizeofsub 11 eval0 4.145067e+01 diffeval0 1.014445e-03 length_qM 7.406029e-02 thresh 1.000000e-08
round 22 sizeofsub 12 eval0 4.145044e+01 diffeval0 2.320895e-04 length_qM 1.923870e-02 thresh 1.000000e-08
round 23 sizeofsub 13 eval0 4.145029e+01 diffeval0 1.484255e-04 length_qM 5.381009e-02 thresh 1.000000e-08
round 24 sizeofsub 14 eval0 4.145015e+01 diffeval0 1.425478e-04 length_qM 2.586565e-02 thresh 1.000000e-08
round 25 sizeofsub 15 eval0 4.145013e+01 diffeval0 1.614310e-05 length_qM 2.969720e-03 thresh 1.000000e-08
round 26 sizeofsub 16 eval0 4.145013e+01 diffeval0 2.628133e-06 length_qM 4.652389e-03 thresh 1.000000e-08
round 27 sizeofsub 17 eval0 4.145013e+01 diffeval0 3.850673e-06 length_qM 3.568514e-03 thresh 1.000000e-08
round 28 sizeofsub 18 eval0 4.145013e+01 diffeval0 4.731158e-07 length_qM 8.766267e-04 thresh 1.000000e-08
round 29 sizeofsub 19 eval0 4.145013e+01 diffeval0 5.482220e-07 length_qM 4.119782e-03 thresh 1.000000e-08
round 30 sizeofsub 20 eval0 4.145013e+01 diffeval0 2.713921e-07 length_qM 2.763301e-04 thresh 1.000000e-08
round 31 sizeofsub 11 eval0 4.145013e+01 diffeval0 1.203542e-08 length_qM 1.170182e-04 thresh 1.000000e-08
round 32 sizeofsub 12 eval0 4.145013e+01 diffeval0 1.810488e-08 length_qM 3.736627e-04 thresh 1.000000e-08
round 33 sizeofsub 13 eval0 4.145013e+01 diffeval0 2.032102e-09 length_qM 9.917186e-05 thresh 1.000000e-08
round 34 sizeofsub 14 eval0 4.145013e+01 diffeval0 6.161329e-10 length_qM 9.510443e-05 thresh 1.000000e-08
round 35 sizeofsub 15 eval0 4.145013e+01 diffeval0 5.007976e-10 length_qM 2.796348e-05 thresh 1.000000e-08
round 36 sizeofsub 16 eval0 4.145013e+01 diffeval0 5.936585e-11 length_qM 8.223087e-06 thresh 1.000000e-08
round 37 sizeofsub 17 eval0 4.145013e+01 diffeval0 1.152500e-11 length_qM 9.933779e-06 thresh 1.000000e-08
round 38 sizeofsub 18 eval0 4.145013e+01 diffeval0 6.771472e-12 length_qM 9.191712e-06 thresh 1.000000e-08
round 39 sizeofsub 19 eval0 4.145013e+01 diffeval0 1.996625e-12 length_qM 1.115321e-06 thresh 1.000000e-08
round 40 sizeofsub 20 eval0 4.145013e+01 diffeval0 4.192202e-13 length_qM 1.806427e-06 thresh 1.000000e-08
round 41 sizeofsub 11 eval0 4.145013e+01 diffeval0 2.486900e-13 length_qM 5.996487e-07 thresh 1.000000e-08
Converged to smallest eigenvalue: eval0 4.145013e+01

Success!!! No Negative Eigenvalues: Ending Get Boys in C++ ...Bye Bye
Orbital 22 Variance 2.67470536
Orbital 14 Variance 2.67553942
Orbital 24 Variance 2.70374218
Orbital 18 Variance 2.70579604
Orbital 20 Variance 2.70929604
Orbital 7 Variance 2.71063388
Orbital 19 Variance 2.72635917
Orbital 11 Variance 2.73048635
Orbital 23 Variance 2.73079484
Orbital 8 Variance 2.73550135
Orbital 21 Variance 2.73572081
Orbital 4 Variance 2.74206648
Orbital 10 Variance 2.74245909
Orbital 9 Variance 2.74269648
Orbital 17 Variance 2.74301401
Orbital 15 Variance 2.74307497
Orbital 12 Variance 2.74412159
Orbital 6 Variance 2.74877140
Orbital 16 Variance 2.75220645
Orbital 13 Variance 2.75559816
Orbital 3 Variance 2.76368753
Orbital 1 Variance 2.76403306
Orbital 5 Variance 2.76469570
Orbital 2 Variance 2.76502981
EXECUTING ORTHO_FUNC DESTRUCTOR

 Dimensions of orbital sub-spaces:    
 Number Hole Orbs:Alpha:Beta:       2    2    2
 Number Active Orbs:Alpha:Beta:    24   23    1
 Number Part Orbs:Alpha:Beta:      26    0    0

 Dimensions in SF-RAS-hp calculation: 
 Number of active space determinants:  576
 Number of hole space determinants:    13296
 Number of part space determinants:    172848
 Number of hole-part determinants:     4021108
 Total 1x space:                       186720
 Total singles space:                  4207828
 REM_MEM_TOT: 2000
 Memory Used: 0
 Memory Left: 2000
 Memory Need: 18
 Constructing 1e MO integrals
 Form (P|Q)**(-1/2)...
 Job number = 66, Threshold = 1.00E-12
Integral type ranges set in mkLRange.C for JobNum: 66  <2-7|2-7>
Symmetry turned off temporarily
Storing 291.19% of integrals
Total number of integrals generated =           72147
Symmetry turned back on
 Forming (pq|P)...
 Forming Active-Active (aa|P) integrals...

 Entering first-index batching code with I1Strt =    3 batch size =   24
 Job number = 65, Threshold = 1.00E-12
Integral type ranges set in mkLRange.C for JobNum: 65  <1-1|2-7>
Symmetry turned off temporarily
Storing 291.19% of integrals
Total number of integrals generated =          422226
Symmetry turned back on
 Forming Active-Active B integrals...
 Contracting B matrices to form 2e integrals. 
 Forming 2J-K over o,v with exact integrals
 Calling AOints... Job number = 22, Threshold = 1.00E-12
Integral type ranges set in mkLRange.C for JobNum: 22  <1-1|1-1>
Storing 291.19% of integrals
Total number of integrals generated =          584444
 done.

 ROHF energy found on disk: 
 E(ROHF):         -16.92456441
-16.92456441
 First 10 Diagonal elements of H: 
 11111111111111111111111_ | 1_______________________        -16.32372952
 11111111111111111111111_ | _1______________________        -16.34347582
 11111111111111111111111_ | __1_____________________        -16.37757473
 11111111111111111111111_ | ___1____________________        -16.37687551
 11111111111111111111111_ | ____1___________________        -16.52823334
 11111111111111111111111_ | _____1__________________        -16.40149020
 11111111111111111111111_ | ______1_________________        -16.35126312
 11111111111111111111111_ | _______1________________        -16.39391199
 11111111111111111111111_ | ________1_______________        -16.34857846
 11111111111111111111111_ | _________1______________        -16.43824813
 Fill S2_CAS Matrix...  done.
 Fill H_CAS Matrix...  done.

 Diagonalizing H_CAS 
 Entering cast_sfcas_to_sfcis
 ===================================================================
 Theory           State:          Energy (au)       (eV)       <S2>
 -------------------------------------------------------------------
 SF-CAS               1:       -17.0290895116     0.0000   132.0000
 SF-CAS               2:       -17.0273247494     0.0480   132.0000
 SF-CAS               3:       -17.0247413855     0.1183   132.0000
 SF-CAS               4:       -17.0233471893     0.1563   132.0000
 SF-CAS               5:       -17.0220190519     0.1924   132.0000
 SF-CAS               6:       -17.0203092842     0.2389   132.0000
 SF-CAS               7:       -17.0199943797     0.2475   132.0000
 SF-CAS               8:       -17.0194996566     0.2610   132.0000
 SF-CAS               9:       -17.0184773164     0.2888   132.0000
 SF-CAS              10:       -17.0177813444     0.3077   132.0000
 SF-CAS              11:       -17.0168663371     0.3326   132.0000
 SF-CAS              12:       -17.0159068831     0.3587   132.0000
 SF-CAS              13:       -17.0154531985     0.3711   132.0000
 SF-CAS              14:       -17.0151761293     0.3786   132.0000
 SF-CAS              15:       -17.0150364900     0.3824   132.0000
 SF-CAS              16:       -17.0146810077     0.3921   132.0000
 SF-CAS              17:       -17.0145048096     0.3969   132.0000
 SF-CAS              18:       -17.0138733193     0.4141   132.0000
 SF-CAS              19:       -16.9359661098     2.5340   132.0000
 SF-CAS              20:       -16.9347706448     2.5666   132.0000
 SF-CAS              21:       -16.9345541724     2.5725   132.0000
 SF-CAS              22:       -16.9320161190     2.6415   132.0000
 SF-CAS              23:       -16.9312454097     2.6625   132.0000
 SF-CAS              24:       -16.9245644124     2.8443   156.0000
 SF-CAS              25:       -16.7630096039     7.2405   132.0000
 SF-CAS              26:       -16.7537865733     7.4914   132.0000
 SF-CAS              27:       -16.7520695171     7.5382   132.0000
 SF-CAS              28:       -16.7512127503     7.5615   132.0000
 SF-CAS              29:       -16.7486984950     7.6299   132.0000
 SF-CAS              30:       -16.7456105564     7.7139   132.0000
 SF-CAS              31:       -16.7402461989     7.8599   132.0000
 SF-CAS              32:       -16.7374922055     7.9348   132.0000
 SF-CAS              33:       -16.7366733463     7.9571   132.0000
 SF-CAS              34:       -16.7356880075     7.9839   132.0000
 SF-CAS              35:       -16.7341947418     8.0246   132.0000
 SF-CAS              36:       -16.7309117433     8.1139   132.0000
 SF-CAS              37:       -16.7293607127     8.1561   132.0000
 SF-CAS              38:       -16.7285933740     8.1770   132.0000
 SF-CAS              39:       -16.7244140000     8.2907   132.0000
 SF-CAS              40:       -16.7230639463     8.3275   132.0000
 SF-CAS              41:       -16.7195783146     8.4223   132.0000
 SF-CAS              42:       -16.7171180519     8.4893   132.0000
 SF-CAS              43:       -16.7162322421     8.5134   132.0000
 SF-CAS              44:       -16.7153086924     8.5385   132.0000
 SF-CAS              45:       -16.7122860371     8.6207   132.0000
 SF-CAS              46:       -16.7106398615     8.6655   132.0000
 SF-CAS              47:       -16.7085332273     8.7229   132.0000
 SF-CAS              48:       -16.7084689408     8.7246   132.0000
 SF-CAS              49:       -16.7065423822     8.7770   132.0000
 SF-CAS              50:       -16.7050586915     8.8174   132.0000
 SF-CAS              51:       -16.7036025762     8.8570   132.0000
 SF-CAS              52:       -16.7028421649     8.8777   132.0000
 SF-CAS              53:       -16.7015342161     8.9133   132.0000
 SF-CAS              54:       -16.7007937247     8.9335   132.0000
 SF-CAS              55:       -16.6997984141     8.9606   132.0000
 SF-CAS              56:       -16.6976180754     9.0199   132.0000
 SF-CAS              57:       -16.6959509540     9.0652   132.0000
 SF-CAS              58:       -16.6952141377     9.0853   132.0000
 SF-CAS              59:       -16.6940494090     9.1170   132.0000
 SF-CAS              60:       -16.6929345363     9.1473   132.0000
 SF-CAS              61:       -16.6906465666     9.2096   132.0000
 SF-CAS              62:       -16.6897419559     9.2342   132.0000
 SF-CAS              63:       -16.6891374353     9.2507   132.0000
 SF-CAS              64:       -16.6881034498     9.2788   132.0000
 SF-CAS              65:       -16.6871964668     9.3035   132.0000
 SF-CAS              66:       -16.6866365829     9.3187   132.0000
 SF-CAS              67:       -16.6838117236     9.3956   132.0000
 SF-CAS              68:       -16.6825095444     9.4310   132.0000
 SF-CAS              69:       -16.6822395410     9.4384   132.0000
 SF-CAS              70:       -16.6789145082     9.5288   132.0000
 SF-CAS              71:       -16.6777232720     9.5613   132.0000
 SF-CAS              72:       -16.6766455123     9.5906   132.0000
 SF-CAS              73:       -16.6762469070     9.6014   132.0000
 SF-CAS              74:       -16.6755569067     9.6202   132.0000
 SF-CAS              75:       -16.6742553113     9.6556   132.0000
 SF-CAS              76:       -16.6739074243     9.6651   132.0000
 SF-CAS              77:       -16.6724492275     9.7048   132.0000
 SF-CAS              78:       -16.6706978997     9.7524   132.0000
 SF-CAS              79:       -16.6698660869     9.7751   132.0000
 SF-CAS              80:       -16.6668670144     9.8567   132.0000
 SF-CAS              81:       -16.6662776000     9.8727   132.0000
 SF-CAS              82:       -16.6656476763     9.8899   132.0000
 SF-CAS              83:       -16.6652264914     9.9013   132.0000
 SF-CAS              84:       -16.6623768204     9.9789   132.0000
 SF-CAS              85:       -16.6616459672     9.9987   132.0000
 SF-CAS              86:       -16.6612365591    10.0099   132.0000
 SF-CAS              87:       -16.6594564159    10.0583   132.0000
 SF-CAS              88:       -16.6588358392    10.0752   132.0000
 SF-CAS              89:       -16.6572630884    10.1180   132.0000
 SF-CAS              90:       -16.6562065155    10.1468   132.0000
 SF-CAS              91:       -16.6556454397    10.1620   132.0000
 SF-CAS              92:       -16.6542281426    10.2006   132.0000
 SF-CAS              93:       -16.6530492638    10.2327   132.0000
 SF-CAS              94:       -16.6514261700    10.2768   132.0000
 SF-CAS              95:       -16.6510311443    10.2876   132.0000
 SF-CAS              96:       -16.6487597514    10.3494   132.0000
 SF-CAS              97:       -16.6480482250    10.3688   132.0000
 SF-CAS              98:       -16.6472007716    10.3918   132.0000
 SF-CAS              99:       -16.6464534453    10.4122   132.0000
 SF-CAS             100:       -16.6439726587    10.4797   132.0000
 SF-CAS             101:       -16.6409401879    10.5622   132.0000
 SF-CAS             102:       -16.6403476952    10.5783   132.0000
 SF-CAS             103:       -16.6377923608    10.6478   132.0000
 SF-CAS             104:       -16.6362453273    10.6899   132.0000
 SF-CAS             105:       -16.6358389210    10.7010   132.0000
 SF-CAS             106:       -16.6337856996    10.7569   132.0000
 SF-CAS             107:       -16.6321386932    10.8017   132.0000
 SF-CAS             108:       -16.6310414238    10.8315   132.0000
 SF-CAS             109:       -16.6282927183    10.9063   132.0000
 SF-CAS             110:       -16.6250572222    10.9944   132.0000
 SF-CAS             111:       -16.6242372637    11.0167   132.0000
 SF-CAS             112:       -16.6235082732    11.0365   132.0000
 SF-CAS             113:       -16.6228542866    11.0543   132.0000
 SF-CAS             114:       -16.6213585276    11.0950   132.0000
 SF-CAS             115:       -16.6194785001    11.1462   132.0000
 SF-CAS             116:       -16.6175411208    11.1989   132.0000
 SF-CAS             117:       -16.6130130099    11.3221   132.0000
 SF-CAS             118:       -16.6101909696    11.3989   132.0000
 SF-CAS             119:       -16.6081602753    11.4542   132.0000
 SF-CAS             120:       -16.6061290474    11.5095   132.0000
 SF-CAS             121:       -16.6028477395    11.5987   132.0000
 SF-CAS             122:       -16.5993563491    11.6937   132.0000
 SF-CAS             123:       -16.5917769983    11.9000   132.0000
 SF-CAS             124:       -16.5894706498    11.9628   132.0000
 SF-CAS             125:       -16.5882403951    11.9962   132.0000
 SF-CAS             126:       -16.5869559452    12.0312   132.0000
 SF-CAS             127:       -16.5849651513    12.0854   132.0000
 SF-CAS             128:       -16.5843070926    12.1033   132.0000
 SF-CAS             129:       -16.5836488288    12.1212   132.0000
 SF-CAS             130:       -16.5816513962    12.1755   132.0000
 SF-CAS             131:       -16.5797658932    12.2268   132.0000
 SF-CAS             132:       -16.5781118772    12.2718   132.0000
 SF-CAS             133:       -16.5766372038    12.3120   132.0000
 SF-CAS             134:       -16.5761677708    12.3247   132.0000
 SF-CAS             135:       -16.5730544441    12.4095   132.0000
 SF-CAS             136:       -16.5723918394    12.4275   132.0000
 SF-CAS             137:       -16.5709650647    12.4663   132.0000
 SF-CAS             138:       -16.5697292405    12.5000   132.0000
 SF-CAS             139:       -16.5689028165    12.5224   132.0000
 SF-CAS             140:       -16.5682043776    12.5414   132.0000
 SF-CAS             141:       -16.5668292837    12.5789   132.0000
 SF-CAS             142:       -16.5662286339    12.5952   132.0000
 SF-CAS             143:       -16.5652435674    12.6220   132.0000
 SF-CAS             144:       -16.5651156074    12.6255   132.0000
 SF-CAS             145:       -16.5635600136    12.6678   132.0000
 SF-CAS             146:       -16.5624852277    12.6971   132.0000
 SF-CAS             147:       -16.5615538447    12.7224   132.0000
 SF-CAS             148:       -16.5606595068    12.7468   132.0000
 SF-CAS             149:       -16.5598553168    12.7686   132.0000
 SF-CAS             150:       -16.5594420604    12.7799   132.0000
 SF-CAS             151:       -16.5590945751    12.7893   132.0000
 SF-CAS             152:       -16.5585291451    12.8047   132.0000
 SF-CAS             153:       -16.5574398315    12.8344   132.0000
 SF-CAS             154:       -16.5555788873    12.8850   132.0000
 SF-CAS             155:       -16.5553371003    12.8916   132.0000
 SF-CAS             156:       -16.5551745804    12.8960   132.0000
 SF-CAS             157:       -16.5537786453    12.9340   132.0000
 SF-CAS             158:       -16.5532274733    12.9490   132.0000
 SF-CAS             159:       -16.5524745731    12.9695   132.0000
 SF-CAS             160:       -16.5493318815    13.0550   132.0000
 SF-CAS             161:       -16.5477406301    13.0983   132.0000
 SF-CAS             162:       -16.5458346222    13.1502   132.0000
 SF-CAS             163:       -16.5386590556    13.3454   132.0000
 SF-CAS             164:       -16.5361104445    13.4148   132.0000
 SF-CAS             165:       -16.5348672866    13.4486   132.0000
 SF-CAS             166:       -16.5314770431    13.5409   132.0000
 SF-CAS             167:       -16.5303372608    13.5719   132.0000
 SF-CAS             168:       -16.5235594422    13.7563   132.0000
 SF-CAS             169:       -16.5218670371    13.8024   132.0000
 SF-CAS             170:       -16.5172584061    13.9278   132.0000
 SF-CAS             171:       -16.5157598956    13.9685   132.0000
 SF-CAS             172:       -16.5078567914    14.1836   132.0000
 SF-CAS             173:       -16.5004860517    14.3842   132.0000
 SF-CAS             174:       -16.4997207198    14.4050   132.0000
 SF-CAS             175:       -16.4944030818    14.5497   132.0000
 SF-CAS             176:       -16.4934935227    14.5745   132.0000
 SF-CAS             177:       -16.4921975184    14.6097   132.0000
 SF-CAS             178:       -16.4910281035    14.6415   132.0000
 SF-CAS             179:       -16.4891297421    14.6932   132.0000
 SF-CAS             180:       -16.4874289774    14.7395   132.0000
 SF-CAS             181:       -16.4871447515    14.7472   132.0000
 SF-CAS             182:       -16.4865368143    14.7638   132.0000
 SF-CAS             183:       -16.4849957030    14.8057   132.0000
 SF-CAS             184:       -16.4837020367    14.8409   132.0000
 SF-CAS             185:       -16.4828094588    14.8652   132.0000
 SF-CAS             186:       -16.4825569104    14.8721   132.0000
 SF-CAS             187:       -16.4790027244    14.9688   132.0000
 SF-CAS             188:       -16.4780716285    14.9941   132.0000
 SF-CAS             189:       -16.4772025614    15.0178   132.0000
 SF-CAS             190:       -16.4757783949    15.0565   132.0000
 SF-CAS             191:       -16.4731418030    15.1283   132.0000
 SF-CAS             192:       -16.4721821391    15.1544   132.0000
 SF-CAS             193:       -16.4698154743    15.2188   132.0000
 SF-CAS             194:       -16.4694698276    15.2282   132.0000
 SF-CAS             195:       -16.4691376130    15.2372   132.0000
 SF-CAS             196:       -16.4684324024    15.2564   132.0000
 SF-CAS             197:       -16.4668820634    15.2986   132.0000
 SF-CAS             198:       -16.4660291267    15.3218   132.0000
 SF-CAS             199:       -16.4650224387    15.3492   132.0000
 SF-CAS             200:       -16.4644100526    15.3659   132.0000
 SF-CAS             201:       -16.4634143176    15.3930   132.0000
 SF-CAS             202:       -16.4628562222    15.4081   132.0000
 SF-CAS             203:       -16.4619858988    15.4318   132.0000
 SF-CAS             204:       -16.4617757172    15.4375   132.0000
 SF-CAS             205:       -16.4602346440    15.4795   132.0000
 SF-CAS             206:       -16.4595943473    15.4969   132.0000
 SF-CAS             207:       -16.4584731323    15.5274   132.0000
 SF-CAS             208:       -16.4572370545    15.5610   132.0000
 SF-CAS             209:       -16.4568171788    15.5725   132.0000
 SF-CAS             210:       -16.4561423567    15.5908   132.0000
 SF-CAS             211:       -16.4541686907    15.6445   132.0000
 SF-CAS             212:       -16.4540491026    15.6478   132.0000
 SF-CAS             213:       -16.4534882938    15.6631   132.0000
 SF-CAS             214:       -16.4523234188    15.6948   132.0000
 SF-CAS             215:       -16.4518726065    15.7070   132.0000
 SF-CAS             216:       -16.4512834482    15.7231   132.0000
 SF-CAS             217:       -16.4497779586    15.7640   132.0000
 SF-CAS             218:       -16.4494861321    15.7720   132.0000
 SF-CAS             219:       -16.4484801202    15.7993   132.0000
 SF-CAS             220:       -16.4474926523    15.8262   132.0000
 SF-CAS             221:       -16.4460342566    15.8659   132.0000
 SF-CAS             222:       -16.4458924987    15.8698   132.0000
 SF-CAS             223:       -16.4451335706    15.8904   132.0000
 SF-CAS             224:       -16.4446466486    15.9037   132.0000
 SF-CAS             225:       -16.4435090556    15.9346   132.0000
 SF-CAS             226:       -16.4432123451    15.9427   132.0000
 SF-CAS             227:       -16.4422892774    15.9678   132.0000
 SF-CAS             228:       -16.4414507050    15.9906   132.0000
 SF-CAS             229:       -16.4406981068    16.0111   132.0000
 SF-CAS             230:       -16.4401888641    16.0250   132.0000
 SF-CAS             231:       -16.4392537609    16.0504   132.0000
 SF-CAS             232:       -16.4390286182    16.0565   132.0000
 SF-CAS             233:       -16.4376553003    16.0939   132.0000
 SF-CAS             234:       -16.4362299080    16.1327   132.0000
 SF-CAS             235:       -16.4355301475    16.1517   132.0000
 SF-CAS             236:       -16.4350977992    16.1635   132.0000
 SF-CAS             237:       -16.4344878457    16.1801   132.0000
 SF-CAS             238:       -16.4333965043    16.2098   132.0000
 SF-CAS             239:       -16.4330156462    16.2202   132.0000
 SF-CAS             240:       -16.4321989934    16.2424   132.0000
 SF-CAS             241:       -16.4311478198    16.2710   132.0000
 SF-CAS             242:       -16.4306605922    16.2842   132.0000
 SF-CAS             243:       -16.4296743983    16.3111   132.0000
 SF-CAS             244:       -16.4291690314    16.3248   132.0000
 SF-CAS             245:       -16.4278728641    16.3601   132.0000
 SF-CAS             246:       -16.4272794624    16.3762   132.0000
 SF-CAS             247:       -16.4272112318    16.3781   132.0000
 SF-CAS             248:       -16.4262883803    16.4032   132.0000
 SF-CAS             249:       -16.4260224957    16.4104   132.0000
 SF-CAS             250:       -16.4255846827    16.4224   132.0000
 SF-CAS             251:       -16.4244970251    16.4520   132.0000
 SF-CAS             252:       -16.4240892281    16.4631   132.0000
 SF-CAS             253:       -16.4229667176    16.4936   132.0000
 SF-CAS             254:       -16.4225580760    16.5047   132.0000
 SF-CAS             255:       -16.4216659053    16.5290   132.0000
 SF-CAS             256:       -16.4212960948    16.5391   132.0000
 SF-CAS             257:       -16.4207518237    16.5539   132.0000
 SF-CAS             258:       -16.4204437472    16.5623   132.0000
 SF-CAS             259:       -16.4195538028    16.5865   132.0000
 SF-CAS             260:       -16.4190751494    16.5995   132.0000
 SF-CAS             261:       -16.4187826356    16.6075   132.0000
 SF-CAS             262:       -16.4179333618    16.6306   132.0000
 SF-CAS             263:       -16.4174608670    16.6434   132.0000
 SF-CAS             264:       -16.4171211490    16.6527   132.0000
 SF-CAS             265:       -16.4164848298    16.6700   132.0000
 SF-CAS             266:       -16.4159604882    16.6843   132.0000
 SF-CAS             267:       -16.4152046535    16.7048   132.0000
 SF-CAS             268:       -16.4137223032    16.7452   132.0000
 SF-CAS             269:       -16.4132196379    16.7588   132.0000
 SF-CAS             270:       -16.4122697484    16.7847   132.0000
 SF-CAS             271:       -16.4120670118    16.7902   132.0000
 SF-CAS             272:       -16.4111763946    16.8144   132.0000
 SF-CAS             273:       -16.4107474308    16.8261   132.0000
 SF-CAS             274:       -16.4103482525    16.8370   132.0000
 SF-CAS             275:       -16.4099151541    16.8488   132.0000
 SF-CAS             276:       -16.4083096014    16.8924   132.0000
 SF-CAS             277:       -16.4080733835    16.8989   132.0000
 SF-CAS             278:       -16.4074982455    16.9145   132.0000
 SF-CAS             279:       -16.4062736437    16.9478   132.0000
 SF-CAS             280:       -16.4058967095    16.9581   132.0000
 SF-CAS             281:       -16.4051368360    16.9788   132.0000
 SF-CAS             282:       -16.4048964502    16.9853   132.0000
 SF-CAS             283:       -16.4043148063    17.0012   132.0000
 SF-CAS             284:       -16.4038282849    17.0144   132.0000
 SF-CAS             285:       -16.4034488836    17.0247   132.0000
 SF-CAS             286:       -16.4028275687    17.0416   132.0000
 SF-CAS             287:       -16.4025407879    17.0494   132.0000
 SF-CAS             288:       -16.4022253693    17.0580   132.0000
 SF-CAS             289:       -16.4014369694    17.0795   132.0000
 SF-CAS             290:       -16.4012161690    17.0855   132.0000
 SF-CAS             291:       -16.4007394267    17.0984   132.0000
 SF-CAS             292:       -16.3996909047    17.1270   132.0000
 SF-CAS             293:       -16.3992210536    17.1398   132.0000
 SF-CAS             294:       -16.3989943427    17.1459   132.0000
 SF-CAS             295:       -16.3988825668    17.1490   132.0000
 SF-CAS             296:       -16.3978787139    17.1763   132.0000
 SF-CAS             297:       -16.3977267567    17.1804   132.0000
 SF-CAS             298:       -16.3973445158    17.1908   132.0000
 SF-CAS             299:       -16.3961320439    17.2238   132.0000
 SF-CAS             300:       -16.3955113344    17.2407   132.0000
 SF-CAS             301:       -16.3951854633    17.2496   132.0000
 SF-CAS             302:       -16.3948783294    17.2579   132.0000
 SF-CAS             303:       -16.3945764279    17.2661   132.0000
 SF-CAS             304:       -16.3940484449    17.2805   132.0000
 SF-CAS             305:       -16.3932470025    17.3023   132.0000
 SF-CAS             306:       -16.3924800403    17.3232   132.0000
 SF-CAS             307:       -16.3921601704    17.3319   132.0000
 SF-CAS             308:       -16.3915118981    17.3495   132.0000
 SF-CAS             309:       -16.3913546551    17.3538   132.0000
 SF-CAS             310:       -16.3909427528    17.3650   132.0000
 SF-CAS             311:       -16.3903013250    17.3825   132.0000
 SF-CAS             312:       -16.3898999298    17.3934   132.0000
 SF-CAS             313:       -16.3890272836    17.4171   132.0000
 SF-CAS             314:       -16.3884104029    17.4339   132.0000
 SF-CAS             315:       -16.3879392391    17.4468   132.0000
 SF-CAS             316:       -16.3875892443    17.4563   132.0000
 SF-CAS             317:       -16.3872681030    17.4650   132.0000
 SF-CAS             318:       -16.3869655525    17.4733   132.0000
 SF-CAS             319:       -16.3861368852    17.4958   132.0000
 SF-CAS             320:       -16.3856220000    17.5098   132.0000
 SF-CAS             321:       -16.3855739347    17.5111   132.0000
 SF-CAS             322:       -16.3847497078    17.5335   132.0000
 SF-CAS             323:       -16.3836438611    17.5636   132.0000
 SF-CAS             324:       -16.3834565957    17.5687   132.0000
 SF-CAS             325:       -16.3828709601    17.5847   132.0000
 SF-CAS             326:       -16.3819462951    17.6098   132.0000
 SF-CAS             327:       -16.3816509395    17.6179   132.0000
 SF-CAS             328:       -16.3812103275    17.6299   132.0000
 SF-CAS             329:       -16.3809781121    17.6362   132.0000
 SF-CAS             330:       -16.3802394657    17.6563   132.0000
 SF-CAS             331:       -16.3797187321    17.6705   132.0000
 SF-CAS             332:       -16.3793580403    17.6803   132.0000
 SF-CAS             333:       -16.3784343904    17.7054   132.0000
 SF-CAS             334:       -16.3778780803    17.7205   132.0000
 SF-CAS             335:       -16.3774155929    17.7331   132.0000
 SF-CAS             336:       -16.3770016536    17.7444   132.0000
 SF-CAS             337:       -16.3765823439    17.7558   132.0000
 SF-CAS             338:       -16.3751718285    17.7942   132.0000
 SF-CAS             339:       -16.3747386703    17.8060   132.0000
 SF-CAS             340:       -16.3741357345    17.8224   132.0000
 SF-CAS             341:       -16.3735072238    17.8395   132.0000
 SF-CAS             342:       -16.3726386020    17.8631   132.0000
 SF-CAS             343:       -16.3723666199    17.8705   132.0000
 SF-CAS             344:       -16.3721955158    17.8752   132.0000
 SF-CAS             345:       -16.3721380495    17.8767   132.0000
 SF-CAS             346:       -16.3714031619    17.8967   132.0000
 SF-CAS             347:       -16.3708339632    17.9122   132.0000
 SF-CAS             348:       -16.3707091073    17.9156   132.0000
 SF-CAS             349:       -16.3700313196    17.9341   132.0000
 SF-CAS             350:       -16.3694647596    17.9495   132.0000
 SF-CAS             351:       -16.3689235462    17.9642   132.0000
 SF-CAS             352:       -16.3681987972    17.9839   132.0000
 SF-CAS             353:       -16.3676585559    17.9986   132.0000
 SF-CAS             354:       -16.3674788746    18.0035   132.0000
 SF-CAS             355:       -16.3670043451    18.0164   132.0000
 SF-CAS             356:       -16.3660540670    18.0423   132.0000
 SF-CAS             357:       -16.3659023953    18.0464   132.0000
 SF-CAS             358:       -16.3649462145    18.0724   132.0000
 SF-CAS             359:       -16.3648840082    18.0741   132.0000
 SF-CAS             360:       -16.3639305994    18.1001   132.0000
 SF-CAS             361:       -16.3632600615    18.1183   132.0000
 SF-CAS             362:       -16.3628392727    18.1298   132.0000
 SF-CAS             363:       -16.3624913401    18.1392   132.0000
 SF-CAS             364:       -16.3616703268    18.1616   132.0000
 SF-CAS             365:       -16.3615101892    18.1659   132.0000
 SF-CAS             366:       -16.3604726294    18.1942   132.0000
 SF-CAS             367:       -16.3603561214    18.1973   132.0000
 SF-CAS             368:       -16.3600540046    18.2056   132.0000
 SF-CAS             369:       -16.3592735265    18.2268   132.0000
 SF-CAS             370:       -16.3587371943    18.2414   132.0000
 SF-CAS             371:       -16.3584273614    18.2498   132.0000
 SF-CAS             372:       -16.3575953270    18.2725   132.0000
 SF-CAS             373:       -16.3570796682    18.2865   132.0000
 SF-CAS             374:       -16.3560593205    18.3143   132.0000
 SF-CAS             375:       -16.3555525684    18.3281   132.0000
 SF-CAS             376:       -16.3552720579    18.3357   132.0000
 SF-CAS             377:       -16.3540516733    18.3689   132.0000
 SF-CAS             378:       -16.3537635293    18.3767   132.0000
 SF-CAS             379:       -16.3531543777    18.3933   132.0000
 SF-CAS             380:       -16.3530099599    18.3972   132.0000
 SF-CAS             381:       -16.3524137800    18.4135   132.0000
 SF-CAS             382:       -16.3519677728    18.4256   132.0000
 SF-CAS             383:       -16.3511931098    18.4467   132.0000
 SF-CAS             384:       -16.3502172273    18.4732   132.0000
 SF-CAS             385:       -16.3495599321    18.4911   132.0000
 SF-CAS             386:       -16.3493860829    18.4959   132.0000
 SF-CAS             387:       -16.3486595702    18.5156   132.0000
 SF-CAS             388:       -16.3477094504    18.5415   132.0000
 SF-CAS             389:       -16.3475311617    18.5463   132.0000
 SF-CAS             390:       -16.3470365599    18.5598   132.0000
 SF-CAS             391:       -16.3463450196    18.5786   132.0000
 SF-CAS             392:       -16.3455245447    18.6009   132.0000
 SF-CAS             393:       -16.3447738532    18.6214   132.0000
 SF-CAS             394:       -16.3439483930    18.6438   132.0000
 SF-CAS             395:       -16.3435917259    18.6535   132.0000
 SF-CAS             396:       -16.3423528526    18.6872   132.0000
 SF-CAS             397:       -16.3412276779    18.7179   132.0000
 SF-CAS             398:       -16.3403777353    18.7410   132.0000
 SF-CAS             399:       -16.3398809769    18.7545   132.0000
 SF-CAS             400:       -16.3393475329    18.7690   132.0000
 SF-CAS             401:       -16.3388456767    18.7827   132.0000
 SF-CAS             402:       -16.3375841223    18.8170   132.0000
 SF-CAS             403:       -16.3366067835    18.8436   132.0000
 SF-CAS             404:       -16.3356762860    18.8689   132.0000
 SF-CAS             405:       -16.3355270220    18.8730   132.0000
 SF-CAS             406:       -16.3352724399    18.8799   132.0000
 SF-CAS             407:       -16.3340854306    18.9122   132.0000
 SF-CAS             408:       -16.3337690192    18.9208   132.0000
 SF-CAS             409:       -16.3331713976    18.9371   132.0000
 SF-CAS             410:       -16.3323650982    18.9590   132.0000
 SF-CAS             411:       -16.3317122360    18.9768   132.0000
 SF-CAS             412:       -16.3312813367    18.9885   132.0000
 SF-CAS             413:       -16.3303505003    19.0138   132.0000
 SF-CAS             414:       -16.3295460862    19.0357   132.0000
 SF-CAS             415:       -16.3289308052    19.0525   132.0000
 SF-CAS             416:       -16.3284399889    19.0658   132.0000
 SF-CAS             417:       -16.3279821949    19.0783   132.0000
 SF-CAS             418:       -16.3277333070    19.0851   132.0000
 SF-CAS             419:       -16.3266199028    19.1154   132.0000
 SF-CAS             420:       -16.3260902802    19.1298   132.0000
 SF-CAS             421:       -16.3250665315    19.1576   132.0000
 SF-CAS             422:       -16.3235112489    19.1999   132.0000
 SF-CAS             423:       -16.3229869210    19.2142   132.0000
 SF-CAS             424:       -16.3223508999    19.2315   132.0000
 SF-CAS             425:       -16.3216044610    19.2518   132.0000
 SF-CAS             426:       -16.3204812744    19.2824   132.0000
 SF-CAS             427:       -16.3185394409    19.3352   132.0000
 SF-CAS             428:       -16.3172588379    19.3701   132.0000
 SF-CAS             429:       -16.3168753898    19.3805   132.0000
 SF-CAS             430:       -16.3156360510    19.4142   132.0000
 SF-CAS             431:       -16.3153468869    19.4221   132.0000
 SF-CAS             432:       -16.3140220594    19.4582   132.0000
 SF-CAS             433:       -16.3133344905    19.4769   132.0000
 SF-CAS             434:       -16.3133100966    19.4775   132.0000
 SF-CAS             435:       -16.3113767897    19.5301   132.0000
 SF-CAS             436:       -16.3110289770    19.5396   132.0000
 SF-CAS             437:       -16.3097434363    19.5746   132.0000
 SF-CAS             438:       -16.3087031102    19.6029   132.0000
 SF-CAS             439:       -16.3084589513    19.6095   132.0000
 SF-CAS             440:       -16.3071207980    19.6460   132.0000
 SF-CAS             441:       -16.3064947312    19.6630   132.0000
 SF-CAS             442:       -16.3051097862    19.7007   132.0000
 SF-CAS             443:       -16.3043956507    19.7201   132.0000
 SF-CAS             444:       -16.3031499506    19.7540   132.0000
 SF-CAS             445:       -16.3024589535    19.7728   132.0000
 SF-CAS             446:       -16.3018854041    19.7884   132.0000
 SF-CAS             447:       -16.3012848918    19.8048   132.0000
 SF-CAS             448:       -16.3002314689    19.8334   132.0000
 SF-CAS             449:       -16.2997893995    19.8455   132.0000
 SF-CAS             450:       -16.2981811821    19.8892   132.0000
 SF-CAS             451:       -16.2964531398    19.9362   132.0000
 SF-CAS             452:       -16.2959263335    19.9506   132.0000
 SF-CAS             453:       -16.2945930878    19.9869   132.0000
 SF-CAS             454:       -16.2944521016    19.9907   132.0000
 SF-CAS             455:       -16.2934590127    20.0177   132.0000
 SF-CAS             456:       -16.2923475674    20.0480   132.0000
 SF-CAS             457:       -16.2915432971    20.0698   132.0000
 SF-CAS             458:       -16.2905282934    20.0975   132.0000
 SF-CAS             459:       -16.2895470983    20.1242   132.0000
 SF-CAS             460:       -16.2874492435    20.1813   132.0000
 SF-CAS             461:       -16.2862936195    20.2127   132.0000
 SF-CAS             462:       -16.2854783214    20.2349   132.0000
 SF-CAS             463:       -16.2847027762    20.2560   132.0000
 SF-CAS             464:       -16.2844628624    20.2625   132.0000
 SF-CAS             465:       -16.2829563200    20.3035   132.0000
 SF-CAS             466:       -16.2825214332    20.3153   132.0000
 SF-CAS             467:       -16.2810617704    20.3551   132.0000
 SF-CAS             468:       -16.2798704007    20.3875   132.0000
 SF-CAS             469:       -16.2784726759    20.4255   132.0000
 SF-CAS             470:       -16.2773012664    20.4574   132.0000
 SF-CAS             471:       -16.2768810363    20.4688   132.0000
 SF-CAS             472:       -16.2756842019    20.5014   132.0000
 SF-CAS             473:       -16.2753266526    20.5111   132.0000
 SF-CAS             474:       -16.2749021542    20.5227   132.0000
 SF-CAS             475:       -16.2740216961    20.5466   132.0000
 SF-CAS             476:       -16.2732714168    20.5671   132.0000
 SF-CAS             477:       -16.2726940960    20.5828   132.0000
 SF-CAS             478:       -16.2720105067    20.6014   132.0000
 SF-CAS             479:       -16.2676194790    20.7209   132.0000
 SF-CAS             480:       -16.2662378445    20.7585   132.0000
 SF-CAS             481:       -16.2644636836    20.8067   132.0000
 SF-CAS             482:       -16.2637938397    20.8250   132.0000
 SF-CAS             483:       -16.2633132893    20.8380   132.0000
 SF-CAS             484:       -16.2619513089    20.8751   132.0000
 SF-CAS             485:       -16.2618130084    20.8789   132.0000
 SF-CAS             486:       -16.2606112264    20.9116   132.0000
 SF-CAS             487:       -16.1731058595    23.2927   132.0000
 SF-CAS             488:       -16.1656352211    23.4960   132.0000
 SF-CAS             489:       -16.1598991730    23.6521   132.0000
 SF-CAS             490:       -16.1586530950    23.6860   132.0000
 SF-CAS             491:       -16.1567896485    23.7367   132.0000
 SF-CAS             492:       -16.1517287889    23.8744   132.0000
 SF-CAS             493:       -16.1464916708    24.0169   132.0000
 SF-CAS             494:       -16.1410721209    24.1644   132.0000
 SF-CAS             495:       -16.1392342510    24.2144   132.0000
 SF-CAS             496:       -16.1354382476    24.3177   132.0000
 SF-CAS             497:       -16.1306657935    24.4476   132.0000
 SF-CAS             498:       -16.1294304947    24.4812   132.0000
 SF-CAS             499:       -16.1274594460    24.5348   132.0000
 SF-CAS             500:       -16.1266657806    24.5564   132.0000
 SF-CAS             501:       -16.1249665261    24.6027   132.0000
 SF-CAS             502:       -16.1219572233    24.6846   132.0000
 SF-CAS             503:       -16.1184695308    24.7795   132.0000
 SF-CAS             504:       -16.1175638092    24.8041   132.0000
 SF-CAS             505:       -16.1136590262    24.9104   132.0000
 SF-CAS             506:       -16.1114287194    24.9711   132.0000
 SF-CAS             507:       -16.1104881016    24.9967   132.0000
 SF-CAS             508:       -16.1079787361    25.0649   132.0000
 SF-CAS             509:       -16.1075756366    25.0759   132.0000
 SF-CAS             510:       -16.1066685200    25.1006   132.0000
 SF-CAS             511:       -16.1051024681    25.1432   132.0000
 SF-CAS             512:       -16.1029670951    25.2013   132.0000
[...]
 J( 3,21) =           -16.233439  : J'( 3,21) =             8.116720  (cm-1)
 J( 3,22) =           -22.732001  : J'( 3,22) =            11.366001  (cm-1)
 J( 3,23) =          -112.285510  : J'( 3,23) =            56.142755  (cm-1)
 J( 4, 5) =          9162.095971  : J'( 4, 5) =         -4581.047986  (cm-1)
 J( 4, 6) =          9774.883768  : J'( 4, 6) =         -4887.441884  (cm-1)
 J( 4, 7) =         10017.825490  : J'( 4, 7) =         -5008.912745  (cm-1)
 J( 4, 8) =          1234.424177  : J'( 4, 8) =          -617.212088  (cm-1)
 J( 4, 9) =           190.640831  : J'( 4, 9) =           -95.320416  (cm-1)
 J( 4,10) =            55.054719  : J'( 4,10) =           -27.527360  (cm-1)
 J( 4,11) =             8.830540  : J'( 4,11) =            -4.415270  (cm-1)
 J( 4,12) =          -123.071444  : J'( 4,12) =            61.535722  (cm-1)
 J( 4,13) =           -39.196564  : J'( 4,13) =            19.598282  (cm-1)
 J( 4,14) =           -23.463657  : J'( 4,14) =            11.731828  (cm-1)
 J( 4,15) =           -13.007102  : J'( 4,15) =             6.503551  (cm-1)
 J( 4,16) =           327.807595  : J'( 4,16) =          -163.903797  (cm-1)
 J( 4,17) =            23.446092  : J'( 4,17) =           -11.723046  (cm-1)
 J( 4,18) =             9.700690  : J'( 4,18) =            -4.850345  (cm-1)
 J( 4,19) =           -17.316694  : J'( 4,19) =             8.658347  (cm-1)
 J( 4,20) =            85.027750  : J'( 4,20) =           -42.513875  (cm-1)
 J( 4,21) =             8.447208  : J'( 4,21) =            -4.223604  (cm-1)
 J( 4,22) =           -11.774249  : J'( 4,22) =             5.887124  (cm-1)
 J( 4,23) =            -9.794153  : J'( 4,23) =             4.897076  (cm-1)
 J( 5, 6) =          8991.887366  : J'( 5, 6) =         -4495.943683  (cm-1)
 J( 5, 7) =          9077.631340  : J'( 5, 7) =         -4538.815670  (cm-1)
 J( 5, 8) =           714.974436  : J'( 5, 8) =          -357.487218  (cm-1)
 J( 5, 9) =          1304.101657  : J'( 5, 9) =          -652.050828  (cm-1)
 J( 5,10) =           -27.688935  : J'( 5,10) =            13.844468  (cm-1)
 J( 5,11) =            16.954990  : J'( 5,11) =            -8.477495  (cm-1)
 J( 5,12) =           249.958903  : J'( 5,12) =          -124.979452  (cm-1)
 J( 5,13) =           612.025162  : J'( 5,13) =          -306.012581  (cm-1)
 J( 5,14) =            26.125940  : J'( 5,14) =           -13.062970  (cm-1)
 J( 5,15) =           -29.409614  : J'( 5,15) =            14.704807  (cm-1)
 J( 5,16) =           771.504853  : J'( 5,16) =          -385.752426  (cm-1)
 J( 5,17) =            31.964318  : J'( 5,17) =           -15.982159  (cm-1)
 J( 5,18) =           -14.211327  : J'( 5,18) =             7.105664  (cm-1)
 J( 5,19) =           589.584815  : J'( 5,19) =          -294.792407  (cm-1)
 J( 5,20) =           741.557769  : J'( 5,20) =          -370.778885  (cm-1)
 J( 5,21) =          1098.912680  : J'( 5,21) =          -549.456340  (cm-1)
 J( 5,22) =            -4.279570  : J'( 5,22) =             2.139785  (cm-1)
 J( 5,23) =           -75.982124  : J'( 5,23) =            37.991062  (cm-1)
 J( 6, 7) =          9530.922002  : J'( 6, 7) =         -4765.461001  (cm-1)
 J( 6, 8) =           -55.345147  : J'( 6, 8) =            27.672574  (cm-1)
 J( 6, 9) =            66.476283  : J'( 6, 9) =           -33.238141  (cm-1)
 J( 6,10) =           -20.247798  : J'( 6,10) =            10.123899  (cm-1)
 J( 6,11) =            10.620405  : J'( 6,11) =            -5.310202  (cm-1)
 J( 6,12) =           440.958843  : J'( 6,12) =          -220.479422  (cm-1)
 J( 6,13) =           726.843351  : J'( 6,13) =          -363.421676  (cm-1)
 J( 6,14) =            50.130462  : J'( 6,14) =           -25.065231  (cm-1)
 J( 6,15) =             4.356139  : J'( 6,15) =            -2.178070  (cm-1)
 J( 6,16) =           503.309773  : J'( 6,16) =          -251.654887  (cm-1)
 J( 6,17) =           -10.506728  : J'( 6,17) =             5.253364  (cm-1)
 J( 6,18) =            42.413721  : J'( 6,18) =           -21.206860  (cm-1)
 J( 6,19) =           648.734180  : J'( 6,19) =          -324.367090  (cm-1)
 J( 6,20) =           -66.663724  : J'( 6,20) =            33.331862  (cm-1)
 J( 6,21) =            12.300848  : J'( 6,21) =            -6.150424  (cm-1)
 J( 6,22) =           -27.217114  : J'( 6,22) =            13.608557  (cm-1)
 J( 6,23) =           -24.327008  : J'( 6,23) =            12.163504  (cm-1)
 J( 7, 8) =             1.743668  : J'( 7, 8) =            -0.871834  (cm-1)
 J( 7, 9) =            51.878833  : J'( 7, 9) =           -25.939416  (cm-1)
 J( 7,10) =           -12.346603  : J'( 7,10) =             6.173302  (cm-1)
 J( 7,11) =            -1.027753  : J'( 7,11) =             0.513876  (cm-1)
 J( 7,12) =           979.970803  : J'( 7,12) =          -489.985401  (cm-1)
 J( 7,13) =            19.703312  : J'( 7,13) =            -9.851656  (cm-1)
 J( 7,14) =            54.023974  : J'( 7,14) =           -27.011987  (cm-1)
 J( 7,15) =            20.023573  : J'( 7,15) =           -10.011786  (cm-1)
 J( 7,16) =          -102.065967  : J'( 7,16) =            51.032984  (cm-1)
 J( 7,17) =           -15.588020  : J'( 7,17) =             7.794010  (cm-1)
 J( 7,18) =           -30.257192  : J'( 7,18) =            15.128596  (cm-1)
 J( 7,19) =           -20.661619  : J'( 7,19) =            10.330809  (cm-1)
 J( 7,20) =           974.035293  : J'( 7,20) =          -487.017647  (cm-1)
 J( 7,21) =           436.933557  : J'( 7,21) =          -218.466778  (cm-1)
 J( 7,22) =            36.771450  : J'( 7,22) =           -18.385725  (cm-1)
 J( 7,23) =           -21.471798  : J'( 7,23) =            10.735899  (cm-1)
 J( 8, 9) =          9244.061953  : J'( 8, 9) =         -4622.030976  (cm-1)
 J( 8,10) =          9825.137613  : J'( 8,10) =         -4912.568807  (cm-1)
 J( 8,11) =          9331.548794  : J'( 8,11) =         -4665.774397  (cm-1)
 J( 8,12) =             8.091827  : J'( 8,12) =            -4.045913  (cm-1)
 J( 8,13) =            14.230632  : J'( 8,13) =            -7.115316  (cm-1)
 J( 8,14) =             2.053511  : J'( 8,14) =            -1.026756  (cm-1)
 J( 8,15) =            -0.057515  : J'( 8,15) =             0.028757  (cm-1)
 J( 8,16) =          1693.663501  : J'( 8,16) =          -846.831750  (cm-1)
 J( 8,17) =           151.807689  : J'( 8,17) =           -75.903844  (cm-1)
 J( 8,18) =            76.573241  : J'( 8,18) =           -38.286620  (cm-1)
 J( 8,19) =            65.535038  : J'( 8,19) =           -32.767519  (cm-1)
 J( 8,20) =           139.211788  : J'( 8,20) =           -69.605894  (cm-1)
 J( 8,21) =            -9.627040  : J'( 8,21) =             4.813520  (cm-1)
 J( 8,22) =           -14.707579  : J'( 8,22) =             7.353790  (cm-1)
 J( 8,23) =           114.132125  : J'( 8,23) =           -57.066063  (cm-1)
 J( 9,10) =          9797.563432  : J'( 9,10) =         -4898.781716  (cm-1)
 J( 9,11) =          8885.898899  : J'( 9,11) =         -4442.949449  (cm-1)
 J( 9,12) =             7.814165  : J'( 9,12) =            -3.907083  (cm-1)
 J( 9,13) =            -8.028538  : J'( 9,13) =             4.014269  (cm-1)
 J( 9,14) =            -2.247769  : J'( 9,14) =             1.123885  (cm-1)
 J( 9,15) =            13.424339  : J'( 9,15) =            -6.712169  (cm-1)
 J( 9,16) =           -40.628209  : J'( 9,16) =            20.314105  (cm-1)
 J( 9,17) =            56.931813  : J'( 9,17) =           -28.465907  (cm-1)
 J( 9,18) =             9.661688  : J'( 9,18) =            -4.830844  (cm-1)
 J( 9,19) =            15.614073  : J'( 9,19) =            -7.807037  (cm-1)
 J( 9,20) =          1480.191716  : J'( 9,20) =          -740.095858  (cm-1)
 J( 9,21) =          -152.805623  : J'( 9,21) =            76.402811  (cm-1)
 J( 9,22) =           -90.129580  : J'( 9,22) =            45.064790  (cm-1)
 J( 9,23) =          1450.434165  : J'( 9,23) =          -725.217082  (cm-1)
 J(10,11) =          9723.259349  : J'(10,11) =         -4861.629675  (cm-1)
 J(10,12) =             0.416499  : J'(10,12) =            -0.208249  (cm-1)
 J(10,13) =            -2.666891  : J'(10,13) =             1.333446  (cm-1)
 J(10,14) =            -0.900333  : J'(10,14) =             0.450166  (cm-1)
 J(10,15) =             2.068508  : J'(10,15) =            -1.034254  (cm-1)
 J(10,16) =            23.120604  : J'(10,16) =           -11.560302  (cm-1)
 J(10,17) =            79.540417  : J'(10,17) =           -39.770208  (cm-1)
 J(10,18) =            -4.032570  : J'(10,18) =             2.016285  (cm-1)
 J(10,19) =            13.400062  : J'(10,19) =            -6.700031  (cm-1)
 J(10,20) =           141.103752  : J'(10,20) =           -70.551876  (cm-1)
 J(10,21) =           -13.301209  : J'(10,21) =             6.650604  (cm-1)
 J(10,22) =           -19.473985  : J'(10,22) =             9.736992  (cm-1)
 J(10,23) =           151.980875  : J'(10,23) =           -75.990437  (cm-1)
 J(11,12) =            -1.936138  : J'(11,12) =             0.968069  (cm-1)
 J(11,13) =            13.523737  : J'(11,13) =            -6.761868  (cm-1)
 J(11,14) =             1.040460  : J'(11,14) =            -0.520230  (cm-1)
 J(11,15) =             8.044150  : J'(11,15) =            -4.022075  (cm-1)
 J(11,16) =           528.422987  : J'(11,16) =          -264.211493  (cm-1)
 J(11,17) =          1903.880785  : J'(11,17) =          -951.940393  (cm-1)
 J(11,18) =            20.982297  : J'(11,18) =           -10.491148  (cm-1)
 J(11,19) =             3.056353  : J'(11,19) =            -1.528177  (cm-1)
 J(11,20) =            95.941604  : J'(11,20) =           -47.970802  (cm-1)
 J(11,21) =           -11.676218  : J'(11,21) =             5.838109  (cm-1)
 J(11,22) =           -18.471930  : J'(11,22) =             9.235965  (cm-1)
 J(11,23) =            86.574748  : J'(11,23) =           -43.287374  (cm-1)
 J(12,13) =          9426.620003  : J'(12,13) =         -4713.310001  (cm-1)
 J(12,14) =          9755.910123  : J'(12,14) =         -4877.955061  (cm-1)
 J(12,15) =          8666.742014  : J'(12,15) =         -4333.371007  (cm-1)
 J(12,16) =            15.395640  : J'(12,16) =            -7.697820  (cm-1)
 J(12,17) =             9.413781  : J'(12,17) =            -4.706890  (cm-1)
 J(12,18) =            18.112207  : J'(12,18) =            -9.056103  (cm-1)
 J(12,19) =           105.547930  : J'(12,19) =           -52.773965  (cm-1)
 J(12,20) =            92.140406  : J'(12,20) =           -46.070203  (cm-1)
 J(12,21) =          1486.667631  : J'(12,21) =          -743.333815  (cm-1)
 J(12,22) =           151.638621  : J'(12,22) =           -75.819310  (cm-1)
 J(12,23) =           119.369148  : J'(12,23) =           -59.684574  (cm-1)
 J(13,14) =          9769.320345  : J'(13,14) =         -4884.660173  (cm-1)
 J(13,15) =          9507.969123  : J'(13,15) =         -4753.984561  (cm-1)
 J(13,16) =            67.809399  : J'(13,16) =           -33.904699  (cm-1)
 J(13,17) =            90.112375  : J'(13,17) =           -45.056188  (cm-1)
 J(13,18) =           164.677754  : J'(13,18) =           -82.338877  (cm-1)
 J(13,19) =          2136.823804  : J'(13,19) =         -1068.411902  (cm-1)
 J(13,20) =             3.951292  : J'(13,20) =            -1.975646  (cm-1)
 J(13,21) =          -109.468144  : J'(13,21) =            54.734072  (cm-1)
 J(13,22) =            -9.754165  : J'(13,22) =             4.877083  (cm-1)
 J(13,23) =            -0.100459  : J'(13,23) =             0.050229  (cm-1)
 J(14,15) =          9895.753306  : J'(14,15) =         -4947.876653  (cm-1)
 J(14,16) =             9.770331  : J'(14,16) =            -4.885165  (cm-1)
 J(14,17) =            11.999825  : J'(14,17) =            -5.999913  (cm-1)
 J(14,18) =            23.764525  : J'(14,18) =           -11.882263  (cm-1)
 J(14,19) =           153.840077  : J'(14,19) =           -76.920038  (cm-1)
 J(14,20) =           -20.764025  : J'(14,20) =            10.382012  (cm-1)
 J(14,21) =          -102.462222  : J'(14,21) =            51.231111  (cm-1)
 J(14,22) =           -20.590143  : J'(14,22) =            10.295071  (cm-1)
 J(14,23) =           -20.875680  : J'(14,23) =            10.437840  (cm-1)
 J(15,16) =             9.179729  : J'(15,16) =            -4.589864  (cm-1)
 J(15,17) =            20.838938  : J'(15,17) =           -10.419469  (cm-1)
 J(15,18) =            20.686843  : J'(15,18) =           -10.343421  (cm-1)
 J(15,19) =           127.261307  : J'(15,19) =           -63.630653  (cm-1)
 J(15,20) =            97.210024  : J'(15,20) =           -48.605012  (cm-1)
 J(15,21) =          1361.864805  : J'(15,21) =          -680.932402  (cm-1)
 J(15,22) =           137.099885  : J'(15,22) =           -68.549942  (cm-1)
 J(15,23) =           106.382175  : J'(15,23) =           -53.191087  (cm-1)
 J(16,17) =          9064.929706  : J'(16,17) =         -4532.464853  (cm-1)
 J(16,18) =          9630.797173  : J'(16,18) =         -4815.398587  (cm-1)
 J(16,19) =          9305.448531  : J'(16,19) =         -4652.724265  (cm-1)
 J(16,20) =            14.725118  : J'(16,20) =            -7.362559  (cm-1)
 J(16,21) =             3.373196  : J'(16,21) =            -1.686598  (cm-1)
 J(16,22) =            -1.470062  : J'(16,22) =             0.735031  (cm-1)
 J(16,23) =             3.010812  : J'(16,23) =            -1.505406  (cm-1)
 J(17,18) =          9802.651702  : J'(17,18) =         -4901.325851  (cm-1)
 J(17,19) =          9321.903521  : J'(17,19) =         -4660.951760  (cm-1)
 J(17,20) =             4.620114  : J'(17,20) =            -2.310057  (cm-1)
 J(17,21) =             3.963247  : J'(17,21) =            -1.981623  (cm-1)
 J(17,22) =            -0.915462  : J'(17,22) =             0.457731  (cm-1)
 J(17,23) =            12.613737  : J'(17,23) =            -6.306869  (cm-1)
 J(18,19) =          9924.077176  : J'(18,19) =         -4962.038588  (cm-1)
 J(18,20) =             0.617547  : J'(18,20) =            -0.308773  (cm-1)
 J(18,21) =            -1.365442  : J'(18,21) =             0.682721  (cm-1)
 J(18,22) =            -1.185644  : J'(18,22) =             0.592822  (cm-1)
 J(18,23) =            -0.214027  : J'(18,23) =             0.107013  (cm-1)
 J(19,20) =             2.598154  : J'(19,20) =            -1.299077  (cm-1)
 J(19,21) =            12.211900  : J'(19,21) =            -6.105950  (cm-1)
 J(19,22) =             0.077612  : J'(19,22) =            -0.038806  (cm-1)
 J(19,23) =             0.174171  : J'(19,23) =            -0.087086  (cm-1)
 J(20,21) =          8992.253648  : J'(20,21) =         -4496.126824  (cm-1)
 J(20,22) =          9945.227393  : J'(20,22) =         -4972.613696  (cm-1)
 J(20,23) =          8670.199198  : J'(20,23) =         -4335.099599  (cm-1)
 J(21,22) =          9718.180213  : J'(21,22) =         -4859.090107  (cm-1)
 J(21,23) =          9525.786646  : J'(21,23) =         -4762.893323  (cm-1)
 J(22,23) =          9826.009057  : J'(22,23) =         -4913.004529  (cm-1)
 Analysis of SCF Wavefunction

 --------------------------------------------------------------

                    Orbital Energies (a.u.)
 --------------------------------------------------------------

 Alpha MOs
 -- Occupied --
 -0.914  -0.914  -0.526  -0.522  -0.521  -0.531  -0.534  -0.532
 -0.531  -0.528  -0.523  -0.531  -0.530  -0.540  -0.521  -0.527
 -0.525  -0.535  -0.527  -0.534  -0.529  -0.534  -0.539  -0.531
 -0.549  -0.548
 -- Virtual --
  1.179   1.095   0.941   1.065   1.201   1.002   1.145   1.133
  0.790   1.094   0.986   0.951   0.974   1.021   1.047   0.994
  1.021   1.082   1.016   1.032   1.043   0.987   0.961   1.070
  1.094   1.027

 Beta MOs
 -- Occupied --
 -0.914  -0.914
 -- Virtual --
  0.151   0.152   0.152   0.152   0.155   0.149   0.150   0.152
  0.151   0.154   0.153   0.150   0.152   0.152   0.153   0.148
  0.153   0.155   0.149   0.150   0.152   0.149   0.151   0.151
  1.345   1.266   1.119   1.221   1.354   1.180   1.255   1.288
  0.993   1.223   1.158   1.121   1.142   1.189   1.215   1.167
  1.164   1.240   1.187   1.201   1.216   1.154   1.137   1.242
  1.254   1.198
 --------------------------------------------------------------

          Ground-State Mulliken Net Atomic Charges

     Atom                 Charge (a.u.)
  ----------------------------------------
      1 H                    -0.000089
      2 H                    -0.000290
      3 H                    -0.000015
      4 H                     0.000009
      5 H                     0.000026
      6 H                    -0.000282
      7 H                    -0.000099
      8 H                    -0.000064
      9 H                    -0.000069
     10 H                     0.000002
     11 H                     0.000199
     12 H                    -0.000110
     13 H                    -0.000038
     14 H                     0.000178
     15 H                     0.000157
     16 H                     0.000048
     17 H                    -0.000122
     18 H                    -0.000069
     19 H                     0.000228
     20 H                     0.000157
     21 H                     0.000017
     22 H                     0.000024
     23 H                     0.000198
     24 H                     0.000003
     25 He                    0.000000
     26 He                    0.000000
  ----------------------------------------
  Sum of atomic charges =    -0.000000

 -----------------------------------------------------------------
                    Cartesian Multipole Moments
 -----------------------------------------------------------------
    Charge (ESU x 10^10)
                 0.0000
    Dipole Moment (Debye)
         X      -0.0046      Y      -0.0024      Z      -0.0012
       Tot       0.0053
    Quadrupole Moments (Debye-Ang)
        XX     -39.1041     XY      -0.2359     YY     -39.1830
        XZ      -0.0438     YZ       0.0487     ZZ     -39.2839
    Octopole Moments (Debye-Ang^2)
       XXX     162.8397    XXY     -47.3737    XYY      55.3179
       YYY    -148.1391    XXZ     -19.1880    XYZ       0.1890
       YYZ     -19.6193    XZZ      56.1009    YZZ     -47.8855
       ZZZ     -61.5435
    Hexadecapole Moments (Debye-Ang^3)
      XXXX   -2279.6334   XXXY      55.1810   XXYY    -707.1962
      XYYY      58.9540   YYYY   -1934.5019   XXXZ     -34.5336
      XXYZ    -205.6401   XYYZ      -3.2013   YYYZ    -629.6009
      XXZZ    -686.7989   XYZZ      27.2012   YYZZ    -627.8323
      XZZZ     -37.5654   YZZZ    -637.7924   ZZZZ   -1902.4108
 -----------------------------------------------------------------
 JobOver = TRUE
Archival summary:
1\1\sinatra\SP\ROProcedureUnspecified\6-31G*\e224()\nmayhall\WedMar2910:37:022017WedMar2910:37:022017\0\\#,ROProcedureUnspecified,6-31G*,\\0,25\H\H,1,1.62824\H,1,1.62856,2,60.1059\H,1,1.62875,2,60.1063,3,70.5779,0\H,1,2.24058,2,130.619,3,-135.572,0\H,5,1.62867,1,135.832,2,-163.289,0\H,5,1.62871,1,153.178,2,-46.5163,0\H,5,1.62876,1,143.154,2,96.3597,0\H,1,2.43018,2,154.68,3,105.089,0\H,9,1.62945,1,99.5424,2,67.077,0\H,9,1.62953,1,135.202,2,10.4233,0\H,9,1.62966,1,75.1825,2,11.7126,0\H,10,2.39133,9,119.295,1,16.0119,0\H,13,1.62975,10,114.521,9,-10.1986,0\H,14,1.62973,13,60.0216,10,-134.581,0\H,14,1.62982,13,60.0287,10,-64.0577,0\H,14,2.30844,13,136.073,10,60.081,0\H,17,1.62978,14,138.485,13,1.57655,0\H,17,1.62981,14,154.99,13,131.255,0\H,17,1.6299,14,139.009,13,-97.0871,0\H,20,2.43161,17,95.3927,14,66.9462,0\H,21,1.62948,20,163.342,17,-1.99129,0\H,21,1.62959,20,136.572,17,173.248,0\H,21,1.62962,20,125.198,17,-105.025,0\He,7,13.4907,5,172.311,1,-16.2482,0\He,11,15.328,9,149.851,1,38.8882,0\\HF=-16.9245644\\@

 Total job time:  2.04s(wall), 2.04s(cpu) 
 Wed Mar 29 10:37:02 2017

        *************************************************************
        *                                                           *
        *  Thank you very much for using Q-Chem.  Have a nice day.  *
        *                                                           *
        *************************************************************


*** MISSION COMPLETED -- STARFLEET OUT ***

