Jobname.Temp
SP        RO                            6-31G(d)            
Number of atoms                            I               14
Charge                                     I                0
Multiplicity                               I               13
Number of electrons                        I               16
Number of alpha electrons                  I               14
Number of beta electrons                   I                2
Atomic numbers                             I   N=          14
           1           1           1           1           1           1
           1           1           1           1           1           1
           2           2
Current cartesian coordinates              R   N=          42
 -1.39563833E+00 -1.02168043E+00  1.62062912E-01 -4.37169242E+00 -1.92275854E+00
 -1.26643776E+00 -3.96052581E+00  1.23869658E+00 -2.16562614E-02 -4.17712622E+00
 -1.42555270E+00  2.11639877E+00  2.79063416E+00  5.80529535E+00  1.85722284E-01
  3.18418852E-01  6.91681336E+00  2.27798925E+00  3.45574216E-01  3.65624211E+00
  1.24094535E+00 -4.09806007E-01  6.15158766E+00 -9.77800989E-01  6.59230959E+00
 -1.65451191E+00 -1.14970937E-01  4.33973715E+00  9.17991157E-01 -3.60937690E-03
  3.66531279E+00 -2.01588424E+00  1.62501329E+00  3.62048849E+00 -1.90796198E+00
 -1.79565556E+00  1.88972612E+01  1.88972612E+01  1.88972612E+01 -1.88972612E+01
  1.88972612E+01  1.88972612E+01
Nuclear charges                            R   N=          14
  1.00000000E+00  1.00000000E+00  1.00000000E+00  1.00000000E+00  1.00000000E+00
  1.00000000E+00  1.00000000E+00  1.00000000E+00  1.00000000E+00  1.00000000E+00
  1.00000000E+00  1.00000000E+00  2.00000000E+00  2.00000000E+00
Number of basis functions                  I               28
Number of contracted shells                I               28
Number of primitive shells                 I               56
Highest angular momentum                   I                0
Largest degree of contraction              I                3
Shell types                                I   N=          28
           0           0           0           0           0           0
           0           0           0           0           0           0
           0           0           0           0           0           0
           0           0           0           0           0           0
           0           0           0           0
Number of primitives per shell             I   N=          28
           3           1           3           1           3           1
           3           1           3           1           3           1
           3           1           3           1           3           1
           3           1           3           1           3           1
           3           1           3           1
Shell to atom map                          I   N=          28
           1           1           2           2           3           3
           4           4           5           5           6           6
           7           7           8           8           9           9
          10          10          11          11          12          12
          13          13          14          14
Primitive exponents                        R   N=          56
  1.87311370E+01  2.82539370E+00  6.40121700E-01  1.61277800E-01  1.87311370E+01
  2.82539370E+00  6.40121700E-01  1.61277800E-01  1.87311370E+01  2.82539370E+00
  6.40121700E-01  1.61277800E-01  1.87311370E+01  2.82539370E+00  6.40121700E-01
  1.61277800E-01  1.87311370E+01  2.82539370E+00  6.40121700E-01  1.61277800E-01
  1.87311370E+01  2.82539370E+00  6.40121700E-01  1.61277800E-01  1.87311370E+01
  2.82539370E+00  6.40121700E-01  1.61277800E-01  1.87311370E+01  2.82539370E+00
  6.40121700E-01  1.61277800E-01  1.87311370E+01  2.82539370E+00  6.40121700E-01
  1.61277800E-01  1.87311370E+01  2.82539370E+00  6.40121700E-01  1.61277800E-01
  1.87311370E+01  2.82539370E+00  6.40121700E-01  1.61277800E-01  1.87311370E+01
  2.82539370E+00  6.40121700E-01  1.61277800E-01  3.84216340E+01  5.77803000E+00
  1.24177400E+00  2.97964000E-01  3.84216340E+01  5.77803000E+00  1.24177400E+00
  2.97964000E-01
Contraction coefficients                   R   N=          56
  3.34945995E-02  2.34726947E-01  8.13757318E-01  1.00000000E+00  3.34945995E-02
  2.34726947E-01  8.13757318E-01  1.00000000E+00  3.34945995E-02  2.34726947E-01
  8.13757318E-01  1.00000000E+00  3.34945995E-02  2.34726947E-01  8.13757318E-01
  1.00000000E+00  3.34945995E-02  2.34726947E-01  8.13757318E-01  1.00000000E+00
  3.34945995E-02  2.34726947E-01  8.13757318E-01  1.00000000E+00  3.34945995E-02
  2.34726947E-01  8.13757318E-01  1.00000000E+00  3.34945995E-02  2.34726947E-01
  8.13757318E-01  1.00000000E+00  3.34945995E-02  2.34726947E-01  8.13757318E-01
  1.00000000E+00  3.34945995E-02  2.34726947E-01  8.13757318E-01  1.00000000E+00
  3.34945995E-02  2.34726947E-01  8.13757318E-01  1.00000000E+00  3.34945995E-02
  2.34726947E-01  8.13757318E-01  1.00000000E+00  4.01397393E-02  2.61246097E-01
  7.93184625E-01  1.00000000E+00  4.01397393E-02  2.61246097E-01  7.93184625E-01
  1.00000000E+00
Coordinates of each shell                  R   N=          84
 -1.39563833E+00 -1.02168043E+00  1.62062912E-01 -1.39563833E+00 -1.02168043E+00
  1.62062912E-01 -4.37169242E+00 -1.92275854E+00 -1.26643776E+00 -4.37169242E+00
 -1.92275854E+00 -1.26643776E+00 -3.96052581E+00  1.23869658E+00 -2.16562614E-02
 -3.96052581E+00  1.23869658E+00 -2.16562614E-02 -4.17712622E+00 -1.42555270E+00
  2.11639877E+00 -4.17712622E+00 -1.42555270E+00  2.11639877E+00  2.79063416E+00
  5.80529535E+00  1.85722284E-01  2.79063416E+00  5.80529535E+00  1.85722284E-01
  3.18418852E-01  6.91681336E+00  2.27798925E+00  3.18418852E-01  6.91681336E+00
  2.27798925E+00  3.45574216E-01  3.65624211E+00  1.24094535E+00  3.45574216E-01
  3.65624211E+00  1.24094535E+00 -4.09806007E-01  6.15158766E+00 -9.77800989E-01
 -4.09806007E-01  6.15158766E+00 -9.77800989E-01  6.59230959E+00 -1.65451191E+00
 -1.14970937E-01  6.59230959E+00 -1.65451191E+00 -1.14970937E-01  4.33973715E+00
  9.17991157E-01 -3.60937690E-03  4.33973715E+00  9.17991157E-01 -3.60937690E-03
  3.66531279E+00 -2.01588424E+00  1.62501329E+00  3.66531279E+00 -2.01588424E+00
  1.62501329E+00  3.62048849E+00 -1.90796198E+00 -1.79565556E+00  3.62048849E+00
 -1.90796198E+00 -1.79565556E+00  1.88972612E+01  1.88972612E+01  1.88972612E+01
  1.88972612E+01  1.88972612E+01  1.88972612E+01 -1.88972612E+01  1.88972612E+01
  1.88972612E+01 -1.88972612E+01  1.88972612E+01  1.88972612E+01
SCF Energy                                 R     -1.146757479150660E+01
Number of independent functions            I               28
Alpha MO coefficients                      R   N=         784
 -1.25579139E-21  2.22795753E-21 -1.84858563E-21  4.72026076E-21  4.82238274E-22
 -1.08316251E-21  3.51304155E-21 -6.57577764E-21 -7.33715097E-22  1.54193093E-21
  1.82000338E-21 -2.75717348E-21  2.66056614E-22 -6.82653416E-22 -3.97795254E-22
  9.39640456E-22 -2.57017316E-21  2.91865855E-21  6.50682373E-22 -1.56288317E-21
 -4.85620196E-21  7.17605088E-21  3.83984928E-21 -6.51499888E-21 -5.92081261E-01
 -5.13586011E-01  9.00865220E-21 -9.30261371E-21  3.96376030E-17  1.04842599E-16
 -3.28234340E-16 -1.22317953E-16 -1.25033548E-16 -1.25999438E-16  2.32950044E-16
  2.77688521E-16 -9.60969341E-17 -2.12183641E-16  1.17228991E-18 -1.37215766E-16
  2.96573553E-16  3.80449523E-16 -6.99298128E-17  1.38223277E-16 -1.60500025E-16
 -5.30025599E-18 -9.20686159E-18 -2.93039507E-16  1.14210865E-18  2.42684531E-16
 -1.63379036E-16 -8.74954163E-17 -4.89640332E-17  5.05456416E-17 -5.92081261E-01
 -5.13586011E-01 -1.67558832E-02 -9.05213829E-02 -1.58811478E-02 -8.97632264E-02
 -1.64734753E-02 -9.02427822E-02  4.43430558E-01  7.24525233E-01 -5.22964992E-04
 -7.14507951E-04 -5.21562517E-04 -6.36790981E-04  1.85961553E-03  5.35961343E-03
  1.97060275E-03 -5.72765478E-04 -8.60404119E-04 -5.82309112E-04  9.50359476E-04
 -3.12917090E-04  3.10084462E-04  2.59624605E-03  2.64655855E-03  1.36415781E-03
 -1.24745332E-17 -1.08207266E-17 -2.46954607E-16 -2.14660025E-16  7.13267467E-03
  4.19694145E-03 -6.78056191E-04 -5.65789067E-04 -1.15345072E-03 -3.82206862E-04
 -7.29717456E-04 -4.95332732E-04  2.43168969E-03  2.89675085E-03 -1.12349360E-03
 -8.24176571E-04  4.38172577E-03  3.28036017E-03 -5.33776508E-04 -1.05561803E-03
  4.43829684E-01  7.24202486E-01 -1.71996651E-02 -9.07244023E-02 -1.67719451E-02
 -8.96659825E-02 -1.65910010E-02 -8.98052992E-02  4.79032369E-17  4.15524414E-17
 -3.92545758E-17 -3.36042603E-17 -3.27425412E-03 -2.75709631E-03  9.33628025E-04
  8.92236200E-04 -2.12508897E-03 -3.22613863E-03  4.18048332E-04  8.23171426E-04
  1.67628810E-02  8.99775172E-02 -4.43692629E-01 -7.24498403E-01  1.76894731E-02
  9.09543604E-02  1.59642922E-02  8.99720504E-02  1.16165661E-03  6.98544090E-04
 -5.95712698E-03 -6.70755188E-03 -7.72188836E-05  7.55941154E-04  2.54718216E-04
  1.08960217E-03 -1.26527148E-17 -1.09752594E-17 -1.72961959E-16 -1.50046684E-16
 -8.25612356E-03 -1.71209732E-02 -3.98566666E-04  3.02951783E-03  6.83386351E-04
  2.44690618E-03  1.67858850E-03  2.13192469E-03  2.00265213E-03  3.04849315E-03
 -4.62885033E-04 -1.12402310E-03  1.40011597E-03  3.33668709E-03 -7.19883931E-04
 -8.29849494E-04 -1.61631798E-02 -8.97449821E-02 -1.64020336E-02 -9.05925086E-02
 -1.53164527E-02 -8.98414872E-02  4.43816001E-01  7.24994402E-01 -5.68774486E-17
 -4.93370163E-17  2.05438330E-16  1.78626900E-16  2.08324453E-03  3.07857603E-03
 -1.29454919E-03 -7.12760697E-04  4.78021073E-03  2.94086888E-03 -2.99531557E-04
 -9.73037758E-04  4.44614992E-01  7.25092541E-01 -1.61899785E-02 -8.97061845E-02
 -1.56802669E-02 -8.97913103E-02 -1.63752349E-02 -8.98906829E-02  1.18229613E-03
  3.82217731E-03 -1.12029887E-02 -2.53976023E-02  1.65636332E-03  3.69111991E-03
  9.95226105E-04  3.59852130E-03 -2.78873346E-17 -2.41900809E-17  2.11647218E-17
  1.84091994E-17  1.53917930E-02  8.92692268E-02  1.62003243E-02  9.00210054E-02
 -4.44409319E-01 -7.25461211E-01  1.59483827E-02  9.03322843E-02 -2.88257042E-03
 -4.40190012E-03 -3.64691087E-04 -4.96818279E-03  9.85280837E-03  2.57385049E-02
  6.35413523E-03  2.58667777E-03  1.15605418E-03  6.54948890E-04 -8.51546302E-04
 -1.30147779E-03 -2.58380927E-03 -1.68899329E-03 -1.77843077E-03 -1.48306168E-03
  9.08546742E-17  7.88096417E-17 -3.43890090E-17 -2.93801902E-17 -1.72946096E-02
 -9.05581999E-02  4.43755004E-01  7.24330267E-01 -1.68824936E-02 -9.02427737E-02
 -1.59284796E-02 -8.97080290E-02 -1.24712392E-03 -6.45570020E-04 -7.81729546E-04
 -8.93249772E-04  6.55337761E-03  6.18213828E-03  1.11485876E-03 -4.46250877E-04
 -8.23866988E-04 -6.62483661E-04  7.12724495E-04 -1.61696146E-04  2.43578357E-03
  1.95132227E-03  5.51257276E-04  2.05720851E-03 -6.44962734E-17 -5.59456341E-17
  2.03629671E-16  1.76189681E-16 -7.99960476E-04 -4.06314373E-03 -2.57436422E-04
 -6.36456605E-05  5.38321757E-03  3.86562871E-03 -1.36545147E-03  3.15397104E-04
  1.67729174E-02  9.00785373E-02  1.58202291E-02  9.00693728E-02  1.65283455E-02
  9.05560542E-02 -4.43556085E-01 -7.24577750E-01  7.40018040E-04  7.89260629E-04
 -3.70916541E-03 -6.45062031E-03 -6.27265097E-04  1.04538619E-03  6.54425984E-04
  7.62240090E-04 -3.82525930E-18 -3.31811102E-18 -2.69299723E-17 -2.33632520E-17
  8.69566504E-03  2.02652625E-02 -1.45970253E-03 -2.79234763E-03 -1.46659696E-03
 -2.59719773E-03  6.65522213E-04 -3.57421549E-03 -2.50171115E-03 -3.30157418E-03
  2.94319035E-04  6.73279894E-04  2.00166798E-03 -1.41153650E-03 -3.98260241E-04
  1.01012564E-03  1.62776225E-02  8.95365931E-02  1.59925638E-02  9.06225792E-02
 -4.43924665E-01 -7.25117170E-01  1.52664455E-02  8.98950302E-02 -4.41367378E-17
 -3.82852746E-17  3.20318146E-16  2.77428862E-16  4.45875372E-01  7.26103662E-01
 -1.62638384E-02 -9.00698885E-02 -1.50734602E-02 -8.90849134E-02 -1.58677119E-02
 -9.03892871E-02  7.92998131E-04  4.10720272E-03  2.06588275E-03  3.58202810E-03
 -1.05305527E-02 -2.69205454E-02  3.28878576E-04  4.19680327E-03  4.66433294E-03
  6.00925310E-03 -3.95331824E-03 -4.02502373E-04 -9.63474044E-03 -1.73859727E-02
 -9.27740904E-03 -1.43664395E-02  1.46815862E-16  1.27351732E-16  2.08244875E-17
  1.76781646E-17  1.99269644E-03  3.10801087E-03 -4.00950309E-04 -2.05609750E-04
 -4.13572048E-04 -1.90352457E-03 -6.14601734E-04 -1.51216733E-04  1.20175665E-02
  2.29682648E-02 -3.49999633E-03 -8.57382810E-03  1.14059807E-02  2.89774800E-02
 -1.41246835E-03 -8.24758780E-03  1.61825801E-02  9.01144390E-02 -4.45883272E-01
 -7.26811842E-01  1.56140580E-02  9.03219712E-02  1.59187707E-02  9.01068134E-02
  9.01583577E-17  7.82054757E-17  5.25162904E-19  1.20696949E-20 -1.14174524E-02
 -2.45638802E-02  4.02463397E-03  8.23861240E-03 -1.01731750E-02 -2.49580238E-02
 -3.48252034E-04  7.45828231E-03 -1.48258840E-02 -8.94020880E-02 -1.62011142E-02
 -9.02533929E-02  4.46517156E-01  7.28110118E-01 -1.54308621E-02 -9.05363667E-02
  2.71502480E-03  4.55745661E-03 -1.04896557E-02 -3.02906273E-02 -3.10544531E-03
  2.53642751E-03  4.60981240E-05  4.56826134E-03  3.99616813E-17  3.46637349E-17
 -2.54959946E-16 -2.21162489E-16  6.78997329E-01 -6.75121001E-01 -2.93901173E-01
  3.60986944E-01  6.50164392E-02 -7.89587487E-03 -1.35584497E-01  1.84163495E-01
  1.75260218E-02  2.48593993E-02 -2.60046733E-01  3.18369113E-01  6.18459781E-01
 -6.05845343E-01 -1.04942052E-01  1.44601778E-01 -4.46581809E-01  5.48892362E-01
  3.69369196E-01 -3.19283018E-01  3.29003321E-01 -2.91446953E-01  1.93148202E-01
 -1.44744596E-01  2.30825958E-16 -2.38268608E-16 -6.96161479E-16  8.28994232E-16
  1.06878397E-01 -8.22879914E-02 -2.12606122E-01  2.65670225E-01  4.40227845E-01
 -4.70517405E-01 -1.51322472E-01  1.95546145E-01 -7.62897708E-01  8.36891493E-01
  1.65137935E-01 -1.91425471E-01  1.17209522E-01 -1.47065484E-01  4.24152140E-01
 -4.84467852E-01  1.01198358E-01 -1.22931764E-01 -6.08570298E-01  6.56832178E-01
  2.29492594E-01 -2.65864031E-01  2.03596525E-01 -2.37199923E-01  1.97664172E-16
 -2.20736677E-16  1.57155873E-16 -1.23703384E-16  3.74274469E-01 -4.36282446E-01
  2.11391863E-01 -2.53847205E-01 -7.16855310E-01  8.00710584E-01  5.46967715E-02
 -7.30104412E-02 -8.54278130E-02  3.36469125E-02  3.95424254E-01 -4.98023683E-01
 -3.36023559E-01  3.00759401E-01 -3.33224425E-01  3.37023947E-01 -2.23028369E-01
  2.74493065E-01 -3.88161058E-01  4.49335225E-01  3.35539400E-01 -3.55924637E-01
  4.03629852E-01 -4.36000279E-01  2.21853829E-16 -2.24342406E-16  1.52233145E-16
 -5.99202128E-17  1.12298397E-01 -1.41351855E-01  4.67684270E-01 -5.48890879E-01
  6.70159514E-02 -8.77871179E-02 -6.57427045E-01  7.74790966E-01  1.50728802E-01
 -1.68581808E-01 -2.73135581E-01  3.27266810E-01 -2.10007641E-01  2.66390782E-01
  3.89186006E-01 -4.51273236E-01 -1.72294319E-01  2.08989751E-01  4.56934938E-02
 -5.34680236E-02 -4.61986682E-01  5.54443831E-01  6.34163675E-01 -7.35582011E-01
  4.67554008E-16 -5.12910623E-16 -6.98004791E-17  6.75320960E-18  4.47885895E-02
 -5.60163488E-02  4.35977967E-01 -5.19058250E-01 -1.06645047E-01  1.20791510E-01
 -3.78327211E-01  4.51727161E-01  1.02295808E-01 -1.35806760E-01 -3.46910884E-01
  4.04251456E-01 -1.96253053E-01  2.18202391E-01  3.64630960E-01 -4.46007757E-01
 -5.12677512E-02  6.13891859E-02 -6.81696924E-02  7.59401837E-02  7.52543735E-01
 -8.96112811E-01 -6.33558986E-01  7.57822350E-01  1.71316178E-16 -1.66910700E-16
  7.81745441E-16 -8.99307162E-16 -5.33679344E-02  7.56718212E-02  4.60116070E-01
 -5.50457830E-01  2.43869080E-01 -2.78021220E-01 -6.31177935E-01  7.53488292E-01
 -1.90054217E-01  2.51352804E-01  5.75501582E-01 -6.71073874E-01  3.57519834E-01
 -3.91548590E-01 -6.04773037E-01  7.41690072E-01  1.39740928E-01 -1.66264413E-01
  1.36104240E-01 -1.51727776E-01 -3.83555267E-02  4.52306636E-02 -2.26963149E-01
  2.69411945E-01  5.17641041E-16 -5.39073768E-16 -1.61200475E-17  1.10729074E-16
 -3.94910447E-01  4.78318320E-01 -5.68618331E-02  6.89931587E-02  3.65150221E-01
 -4.64306878E-01  6.38628317E-02 -7.89065532E-02  1.41126041E-01 -7.80746277E-02
  4.84094155E-01 -5.08714505E-01 -2.09182566E-01  3.52528701E-01  1.53461919E-01
 -1.00529375E-01 -1.01865526E+00  1.11587776E+00  6.96536604E-02 -2.35324614E-01
  1.09450434E-01 -2.79817650E-01 -5.02224297E-02 -8.15732389E-02 -1.18978926E-15
  1.22007540E-15 -3.87417267E-16  1.71762422E-16  1.60685356E-01 -3.66800064E-01
 -7.51282850E-01  7.85374354E-01  1.84326718E-01 -4.00055071E-01 -5.63089761E-01
  5.52602547E-01  6.09745798E-01 -6.96942679E-01  2.84164875E-01 -2.86152283E-01
 -4.00503978E-01  5.85571261E-01 -5.64420472E-02  1.37252485E-01  3.12727259E-01
 -3.25826979E-01 -1.08948913E-01  1.98119156E-01  1.77482887E-01 -1.47801046E-01
  3.01870684E-02  3.34238659E-02 -4.59463635E-16  4.69692972E-16 -3.21564446E-16
  1.64704476E-16  3.30919124E-01 -4.68773618E-01 -9.75155035E-02  9.35528868E-02
 -4.07414026E-01  4.73335800E-01 -3.80369962E-02  1.90041966E-02 -2.44586496E-01
  4.91440809E-01  6.23401453E-01 -6.27100230E-01 -4.61290740E-02  2.49698057E-01
  6.96048344E-01 -7.21748952E-01  1.31961765E-01 -1.26172520E-01  6.04725354E-01
 -7.48950645E-01 -2.29460698E-01  3.39625696E-01 -2.66786460E-01  3.84410243E-01
  1.20422670E-15 -1.24097324E-15  1.13897708E-15 -1.22468182E-15 -2.10534176E-01
 -2.06996160E-02 -5.09374172E-01  3.78922418E-01 -4.81645236E-01  3.42325077E-01
 -5.10851955E-01  3.80710674E-01 -5.33274586E-01  4.68269880E-01 -3.88520679E-01
  2.79079636E-01 -1.71101989E-01 -1.11406398E-02 -2.71883561E-01  1.27659466E-01
 -3.86786569E-01  2.98978983E-01 -7.45864365E-02 -1.22089649E-01 -3.91950073E-01
  3.05758334E-01 -3.82281576E-01  2.93572611E-01  7.10415141E-16 -7.41228830E-16
  4.14286024E-16 -2.56627550E-16  6.89281269E-01 -7.51818963E-01  1.49050080E-01
 -3.08951222E-03  1.58088768E-01 -1.35902357E-02  1.49897352E-01 -4.29392915E-03
  3.31905676E-01 -3.71502868E-01  7.24034980E-02 -2.41719426E-03  9.84371531E-02
 -3.15909668E-02  4.55730576E-02  3.31381484E-02 -2.33297226E-01 -4.94279219E-02
 -6.66338025E-01  5.49804335E-01 -6.13620082E-01  4.77661213E-01 -5.95056690E-01
  4.49560754E-01  5.14330449E-15 -5.30653588E-15 -3.81022491E-15  3.79488299E-15
  5.22967935E-01 -5.00380644E-01  1.12062257E-01  9.73043177E-02  5.58258787E-01
 -5.47118091E-01  2.07549324E-01 -3.13361473E-02 -4.27385308E-01  2.75247246E-01
 -1.76042864E-01 -8.77981406E-02 -8.74411927E-01  9.31140807E-01 -3.62019167E-01
  1.65422633E-01  2.04647324E-02  3.75661022E-02  4.43154906E-01 -5.89666807E-01
 -1.64653241E-02  1.01147657E-01 -8.66855377E-02  1.94815968E-01  3.21811613E-16
 -3.53548727E-16 -4.59767223E-16  5.49704978E-16 -4.74558259E-15  5.51114525E-15
 -1.08518855E-15  5.50885870E-16  5.95034372E-16 -1.56970023E-15  3.14174152E-16
 -1.09956353E-15  3.91867124E-16 -5.61891041E-16 -3.65315688E-16  2.89597444E-16
 -3.60282271E-16  1.79925920E-16 -1.30208633E-15  1.40017515E-15 -3.32261665E-17
  1.63571136E-15  2.36889594E-15 -1.55018167E-15  3.83032893E-15 -3.50752587E-15
  3.54667768E-15 -3.16752809E-15  1.14981805E+00 -1.18695880E+00  1.78148721E-11
 -1.83902418E-11  2.91807128E-15 -2.87667138E-15  3.49119273E-17  8.50444192E-16
  1.91760154E-15 -1.44622868E-15  9.51218750E-16 -2.03309410E-16  1.75808787E-15
 -2.23936540E-15 -2.13481060E-16  4.49751656E-16  7.58994012E-16 -5.83318262E-16
 -1.32121955E-15  1.74183816E-15 -1.50469239E-15  6.16521354E-16 -2.38162405E-15
  2.11516827E-15 -2.26132242E-15  1.86292661E-15 -9.97451509E-16  3.04338986E-16
 -1.78148675E-11  1.83903927E-11  1.14981805E+00 -1.18695880E+00
Beta MO coefficients                       R   N=         784
 -1.25579139E-21  2.22795753E-21 -1.84858563E-21  4.72026076E-21  4.82238274E-22
 -1.08316251E-21  3.51304155E-21 -6.57577764E-21 -7.33715097E-22  1.54193093E-21
  1.82000338E-21 -2.75717348E-21  2.66056614E-22 -6.82653416E-22 -3.97795254E-22
  9.39640456E-22 -2.57017316E-21  2.91865855E-21  6.50682373E-22 -1.56288317E-21
 -4.85620196E-21  7.17605088E-21  3.83984928E-21 -6.51499888E-21 -5.92081261E-01
 -5.13586011E-01  9.00865220E-21 -9.30261371E-21  3.96376030E-17  1.04842599E-16
 -3.28234340E-16 -1.22317953E-16 -1.25033548E-16 -1.25999438E-16  2.32950044E-16
  2.77688521E-16 -9.60969341E-17 -2.12183641E-16  1.17228991E-18 -1.37215766E-16
  2.96573553E-16  3.80449523E-16 -6.99298128E-17  1.38223277E-16 -1.60500025E-16
 -5.30025599E-18 -9.20686159E-18 -2.93039507E-16  1.14210865E-18  2.42684531E-16
 -1.63379036E-16 -8.74954163E-17 -4.89640332E-17  5.05456416E-17 -5.92081261E-01
 -5.13586011E-01 -1.67558832E-02 -9.05213829E-02 -1.58811478E-02 -8.97632264E-02
 -1.64734753E-02 -9.02427822E-02  4.43430558E-01  7.24525233E-01 -5.22964992E-04
 -7.14507951E-04 -5.21562517E-04 -6.36790981E-04  1.85961553E-03  5.35961343E-03
  1.97060275E-03 -5.72765478E-04 -8.60404119E-04 -5.82309112E-04  9.50359476E-04
 -3.12917090E-04  3.10084462E-04  2.59624605E-03  2.64655855E-03  1.36415781E-03
 -1.24745332E-17 -1.08207266E-17 -2.46954607E-16 -2.14660025E-16  7.13267467E-03
  4.19694145E-03 -6.78056191E-04 -5.65789067E-04 -1.15345072E-03 -3.82206862E-04
 -7.29717456E-04 -4.95332732E-04  2.43168969E-03  2.89675085E-03 -1.12349360E-03
 -8.24176571E-04  4.38172577E-03  3.28036017E-03 -5.33776508E-04 -1.05561803E-03
  4.43829684E-01  7.24202486E-01 -1.71996651E-02 -9.07244023E-02 -1.67719451E-02
 -8.96659825E-02 -1.65910010E-02 -8.98052992E-02  4.79032369E-17  4.15524414E-17
 -3.92545758E-17 -3.36042603E-17 -3.27425412E-03 -2.75709631E-03  9.33628025E-04
  8.92236200E-04 -2.12508897E-03 -3.22613863E-03  4.18048332E-04  8.23171426E-04
  1.67628810E-02  8.99775172E-02 -4.43692629E-01 -7.24498403E-01  1.76894731E-02
  9.09543604E-02  1.59642922E-02  8.99720504E-02  1.16165661E-03  6.98544090E-04
 -5.95712698E-03 -6.70755188E-03 -7.72188836E-05  7.55941154E-04  2.54718216E-04
  1.08960217E-03 -1.26527148E-17 -1.09752594E-17 -1.72961959E-16 -1.50046684E-16
 -8.25612356E-03 -1.71209732E-02 -3.98566666E-04  3.02951783E-03  6.83386351E-04
  2.44690618E-03  1.67858850E-03  2.13192469E-03  2.00265213E-03  3.04849315E-03
 -4.62885033E-04 -1.12402310E-03  1.40011597E-03  3.33668709E-03 -7.19883931E-04
 -8.29849494E-04 -1.61631798E-02 -8.97449821E-02 -1.64020336E-02 -9.05925086E-02
 -1.53164527E-02 -8.98414872E-02  4.43816001E-01  7.24994402E-01 -5.68774486E-17
 -4.93370163E-17  2.05438330E-16  1.78626900E-16  2.08324453E-03  3.07857603E-03
 -1.29454919E-03 -7.12760697E-04  4.78021073E-03  2.94086888E-03 -2.99531557E-04
 -9.73037758E-04  4.44614992E-01  7.25092541E-01 -1.61899785E-02 -8.97061845E-02
 -1.56802669E-02 -8.97913103E-02 -1.63752349E-02 -8.98906829E-02  1.18229613E-03
  3.82217731E-03 -1.12029887E-02 -2.53976023E-02  1.65636332E-03  3.69111991E-03
  9.95226105E-04  3.59852130E-03 -2.78873346E-17 -2.41900809E-17  2.11647218E-17
  1.84091994E-17  1.53917930E-02  8.92692268E-02  1.62003243E-02  9.00210054E-02
 -4.44409319E-01 -7.25461211E-01  1.59483827E-02  9.03322843E-02 -2.88257042E-03
 -4.40190012E-03 -3.64691087E-04 -4.96818279E-03  9.85280837E-03  2.57385049E-02
  6.35413523E-03  2.58667777E-03  1.15605418E-03  6.54948890E-04 -8.51546302E-04
 -1.30147779E-03 -2.58380927E-03 -1.68899329E-03 -1.77843077E-03 -1.48306168E-03
  9.08546742E-17  7.88096417E-17 -3.43890090E-17 -2.93801902E-17 -1.72946096E-02
 -9.05581999E-02  4.43755004E-01  7.24330267E-01 -1.68824936E-02 -9.02427737E-02
 -1.59284796E-02 -8.97080290E-02 -1.24712392E-03 -6.45570020E-04 -7.81729546E-04
 -8.93249772E-04  6.55337761E-03  6.18213828E-03  1.11485876E-03 -4.46250877E-04
 -8.23866988E-04 -6.62483661E-04  7.12724495E-04 -1.61696146E-04  2.43578357E-03
  1.95132227E-03  5.51257276E-04  2.05720851E-03 -6.44962734E-17 -5.59456341E-17
  2.03629671E-16  1.76189681E-16 -7.99960476E-04 -4.06314373E-03 -2.57436422E-04
 -6.36456605E-05  5.38321757E-03  3.86562871E-03 -1.36545147E-03  3.15397104E-04
  1.67729174E-02  9.00785373E-02  1.58202291E-02  9.00693728E-02  1.65283455E-02
  9.05560542E-02 -4.43556085E-01 -7.24577750E-01  7.40018040E-04  7.89260629E-04
 -3.70916541E-03 -6.45062031E-03 -6.27265097E-04  1.04538619E-03  6.54425984E-04
  7.62240090E-04 -3.82525930E-18 -3.31811102E-18 -2.69299723E-17 -2.33632520E-17
  8.69566504E-03  2.02652625E-02 -1.45970253E-03 -2.79234763E-03 -1.46659696E-03
 -2.59719773E-03  6.65522213E-04 -3.57421549E-03 -2.50171115E-03 -3.30157418E-03
  2.94319035E-04  6.73279894E-04  2.00166798E-03 -1.41153650E-03 -3.98260241E-04
  1.01012564E-03  1.62776225E-02  8.95365931E-02  1.59925638E-02  9.06225792E-02
 -4.43924665E-01 -7.25117170E-01  1.52664455E-02  8.98950302E-02 -4.41367378E-17
 -3.82852746E-17  3.20318146E-16  2.77428862E-16  4.45875372E-01  7.26103662E-01
 -1.62638384E-02 -9.00698885E-02 -1.50734602E-02 -8.90849134E-02 -1.58677119E-02
 -9.03892871E-02  7.92998131E-04  4.10720272E-03  2.06588275E-03  3.58202810E-03
 -1.05305527E-02 -2.69205454E-02  3.28878576E-04  4.19680327E-03  4.66433294E-03
  6.00925310E-03 -3.95331824E-03 -4.02502373E-04 -9.63474044E-03 -1.73859727E-02
 -9.27740904E-03 -1.43664395E-02  1.46815862E-16  1.27351732E-16  2.08244875E-17
  1.76781646E-17  1.99269644E-03  3.10801087E-03 -4.00950309E-04 -2.05609750E-04
 -4.13572048E-04 -1.90352457E-03 -6.14601734E-04 -1.51216733E-04  1.20175665E-02
  2.29682648E-02 -3.49999633E-03 -8.57382810E-03  1.14059807E-02  2.89774800E-02
 -1.41246835E-03 -8.24758780E-03  1.61825801E-02  9.01144390E-02 -4.45883272E-01
 -7.26811842E-01  1.56140580E-02  9.03219712E-02  1.59187707E-02  9.01068134E-02
  9.01583577E-17  7.82054757E-17  5.25162904E-19  1.20696949E-20 -1.14174524E-02
 -2.45638802E-02  4.02463397E-03  8.23861240E-03 -1.01731750E-02 -2.49580238E-02
 -3.48252034E-04  7.45828231E-03 -1.48258840E-02 -8.94020880E-02 -1.62011142E-02
 -9.02533929E-02  4.46517156E-01  7.28110118E-01 -1.54308621E-02 -9.05363667E-02
  2.71502480E-03  4.55745661E-03 -1.04896557E-02 -3.02906273E-02 -3.10544531E-03
  2.53642751E-03  4.60981240E-05  4.56826134E-03  3.99616813E-17  3.46637349E-17
 -2.54959946E-16 -2.21162489E-16  6.78997329E-01 -6.75121001E-01 -2.93901173E-01
  3.60986944E-01  6.50164392E-02 -7.89587487E-03 -1.35584497E-01  1.84163495E-01
  1.75260218E-02  2.48593993E-02 -2.60046733E-01  3.18369113E-01  6.18459781E-01
 -6.05845343E-01 -1.04942052E-01  1.44601778E-01 -4.46581809E-01  5.48892362E-01
  3.69369196E-01 -3.19283018E-01  3.29003321E-01 -2.91446953E-01  1.93148202E-01
 -1.44744596E-01  2.30825958E-16 -2.38268608E-16 -6.96161479E-16  8.28994232E-16
  1.06878397E-01 -8.22879914E-02 -2.12606122E-01  2.65670225E-01  4.40227845E-01
 -4.70517405E-01 -1.51322472E-01  1.95546145E-01 -7.62897708E-01  8.36891493E-01
  1.65137935E-01 -1.91425471E-01  1.17209522E-01 -1.47065484E-01  4.24152140E-01
 -4.84467852E-01  1.01198358E-01 -1.22931764E-01 -6.08570298E-01  6.56832178E-01
  2.29492594E-01 -2.65864031E-01  2.03596525E-01 -2.37199923E-01  1.97664172E-16
 -2.20736677E-16  1.57155873E-16 -1.23703384E-16  3.74274469E-01 -4.36282446E-01
  2.11391863E-01 -2.53847205E-01 -7.16855310E-01  8.00710584E-01  5.46967715E-02
 -7.30104412E-02 -8.54278130E-02  3.36469125E-02  3.95424254E-01 -4.98023683E-01
 -3.36023559E-01  3.00759401E-01 -3.33224425E-01  3.37023947E-01 -2.23028369E-01
  2.74493065E-01 -3.88161058E-01  4.49335225E-01  3.35539400E-01 -3.55924637E-01
  4.03629852E-01 -4.36000279E-01  2.21853829E-16 -2.24342406E-16  1.52233145E-16
 -5.99202128E-17  1.12298397E-01 -1.41351855E-01  4.67684270E-01 -5.48890879E-01
  6.70159514E-02 -8.77871179E-02 -6.57427045E-01  7.74790966E-01  1.50728802E-01
 -1.68581808E-01 -2.73135581E-01  3.27266810E-01 -2.10007641E-01  2.66390782E-01
  3.89186006E-01 -4.51273236E-01 -1.72294319E-01  2.08989751E-01  4.56934938E-02
 -5.34680236E-02 -4.61986682E-01  5.54443831E-01  6.34163675E-01 -7.35582011E-01
  4.67554008E-16 -5.12910623E-16 -6.98004791E-17  6.75320960E-18  4.47885895E-02
 -5.60163488E-02  4.35977967E-01 -5.19058250E-01 -1.06645047E-01  1.20791510E-01
 -3.78327211E-01  4.51727161E-01  1.02295808E-01 -1.35806760E-01 -3.46910884E-01
  4.04251456E-01 -1.96253053E-01  2.18202391E-01  3.64630960E-01 -4.46007757E-01
 -5.12677512E-02  6.13891859E-02 -6.81696924E-02  7.59401837E-02  7.52543735E-01
 -8.96112811E-01 -6.33558986E-01  7.57822350E-01  1.71316178E-16 -1.66910700E-16
  7.81745441E-16 -8.99307162E-16 -5.33679344E-02  7.56718212E-02  4.60116070E-01
 -5.50457830E-01  2.43869080E-01 -2.78021220E-01 -6.31177935E-01  7.53488292E-01
 -1.90054217E-01  2.51352804E-01  5.75501582E-01 -6.71073874E-01  3.57519834E-01
 -3.91548590E-01 -6.04773037E-01  7.41690072E-01  1.39740928E-01 -1.66264413E-01
  1.36104240E-01 -1.51727776E-01 -3.83555267E-02  4.52306636E-02 -2.26963149E-01
  2.69411945E-01  5.17641041E-16 -5.39073768E-16 -1.61200475E-17  1.10729074E-16
 -3.94910447E-01  4.78318320E-01 -5.68618331E-02  6.89931587E-02  3.65150221E-01
 -4.64306878E-01  6.38628317E-02 -7.89065532E-02  1.41126041E-01 -7.80746277E-02
  4.84094155E-01 -5.08714505E-01 -2.09182566E-01  3.52528701E-01  1.53461919E-01
 -1.00529375E-01 -1.01865526E+00  1.11587776E+00  6.96536604E-02 -2.35324614E-01
  1.09450434E-01 -2.79817650E-01 -5.02224297E-02 -8.15732389E-02 -1.18978926E-15
  1.22007540E-15 -3.87417267E-16  1.71762422E-16  1.60685356E-01 -3.66800064E-01
 -7.51282850E-01  7.85374354E-01  1.84326718E-01 -4.00055071E-01 -5.63089761E-01
  5.52602547E-01  6.09745798E-01 -6.96942679E-01  2.84164875E-01 -2.86152283E-01
 -4.00503978E-01  5.85571261E-01 -5.64420472E-02  1.37252485E-01  3.12727259E-01
 -3.25826979E-01 -1.08948913E-01  1.98119156E-01  1.77482887E-01 -1.47801046E-01
  3.01870684E-02  3.34238659E-02 -4.59463635E-16  4.69692972E-16 -3.21564446E-16
  1.64704476E-16  3.30919124E-01 -4.68773618E-01 -9.75155035E-02  9.35528868E-02
 -4.07414026E-01  4.73335800E-01 -3.80369962E-02  1.90041966E-02 -2.44586496E-01
  4.91440809E-01  6.23401453E-01 -6.27100230E-01 -4.61290740E-02  2.49698057E-01
  6.96048344E-01 -7.21748952E-01  1.31961765E-01 -1.26172520E-01  6.04725354E-01
 -7.48950645E-01 -2.29460698E-01  3.39625696E-01 -2.66786460E-01  3.84410243E-01