                  Welcome to Q-Chem
     A Quantum Leap Into The Future Of Chemistry


 Q-Chem 4.3, Q-Chem, Inc., Pleasanton, CA (2015)

 Y. Shao,  Z. Gan,  E. Epifanovsky,  A. T. B. Gilbert,  M. Wormit,  
 J. Kussmann,  A. W. Lange,  A. Behn,  J. Deng,  X. Feng,  D. Ghosh,  
 M. Goldey,  P. R. Horn,  L. D. Jacobson,  I. Kaliman,  R. Z. Khaliullin,  
 T. Kus,  A. Landau,  J. Liu,  E. I. Proynov,  Y. M. Rhee,  R. M. Richard,  
 M. A. Rohrdanz,  R. P. Steele,  E. J. Sundstrom,  H. L. Woodcock III,  
 P. M. Zimmerman,  D. Zuev,  B. Albrecht,  E. Alguire,  B. Austin,  
 S. A. Baeppler,  G. J. O. Beran,  Y. A. Bernard,  E. Berquist,  
 K. Brandhorst,  K. B. Bravaya,  S. T. Brown,  D. Casanova,  C.-M. Chang,  
 Y. Chen,  S. H. Chien,  K. D. Closser,  D. L. Crittenden,  M. Diedenhofen,  
 R. A. DiStasio Jr.,  H. Do,  A. D. Dutoi,  R. G. Edgar,  P.-T. Fang,  
 S. Fatehi,  Q. Feng,  L. Fusti-Molnar,  A. Ghysels,  
 A. Golubeva-Zadorozhnaya,  J. Gomes,  A. Gunina,  M. W. D. Hanson-Heine,  
 P. H. P. Harbach,  A. W. Hauser,  E. G. Hohenstein,  Z. C. Holden,  K. Hui,  
 T.-C. Jagau,  H. Ji,  B. Kaduk,  K. Khistyaev,  Jaehoon Kim,  Jihan Kim,  
 R. A. King,  P. Klunzinger,  D. Kosenkov,  T. Kowalczyk,  C. M. Krauter,  
 K. U. Lao,  A. Laurent,  K. V. Lawler,  S. Lehtola,  S. V. Levchenko,  
 C. Y. Lin,  Y.-S. Lin,  F. Liu,  E. Livshits,  R. C. Lochan,  A. Luenser,  
 P. Manohar,  S. F. Manzer,  S.-P. Mao,  N. Mardirossian,  A. V. Marenich,  
 L. A. Martinez-Martinez,  S. A. Maurer,  N. J. Mayhall,  K. Nanda,  
 C. M. Oana,  R. Olivares-Amaya,  D. P. O'Neill,  J. A. Parkhill,  
 T. M. Perrine,  R. Peverati,  P. A. Pieniazek,  F. Plasser,  A. Prociuk,  
 D. R. Rehn,  E. Rosta,  N. J. Russ,  N. Sergueev,  S. M. Sharada,  
 S. Sharma,  D. W. Small,  A. Sodt,  T. Stauch,  T. Stein,  D. Stuck,  
 Y.-C. Su,  A. J. W. Thom,  T. Tsuchimochi,  L. Vogt,  O. Vydrov,  T. Wang,  
 M. A. Watson,  J. Wenzel,  A. White,  C. F. Williams,  V. Vanovschi,  
 S. Yeganeh,  S. R. Yost,  Z.-Q. You,  I. Y. Zhang,  X. Zhang,  Y. Zhao,  
 B. R. Brooks,  G. K. L. Chan,  D. M. Chipman,  C. J. Cramer,  
 W. A. Goddard III,  M. S. Gordon,  W. J. Hehre,  A. Klamt,  
 H. F. Schaefer III,  M. W. Schmidt,  C. D. Sherrill,  D. G. Truhlar,  
 A. Warshel,  X. Xu,  A. Aspuru-Guzik,  R. Baer,  A. T. Bell,  N. A. Besley,  
 J.-D. Chai,  A. Dreuw,  B. D. Dunietz,  T. R. Furlani,  S. R. Gwaltney,  
 C.-P. Hsu,  Y. Jung,  J. Kong,  D. S. Lambrecht,  W. Liang,  C. Ochsenfeld,  
 V. A. Rassolov,  L. V. Slipchenko,  J. E. Subotnik,  T. Van Voorhis,  
 J. M. Herbert,  A. I. Krylov,  P. M. W. Gill,  M. Head-Gordon

 Contributors to earlier versions of Q-Chem not listed above: 
 R. D. Adamson,  J. Baker,  E. F. C. Byrd,  A. K. Chakraborty,  C.-L. Cheng,  
 H. Dachsel,  R. J. Doerksen,  G. Hawkins,  A. Heyden,  S. Hirata,  
 G. Kedziora,  F. J. Keil,  C. Kelley,  P. P. Korambath,  W. Kurlancheek,  
 A. M. Lee,  M. S. Lee,  D. Liotard,  I. Lotan,  P. E. Maslen,  N. Nair,  
 D. Neuhauser,  R. Olson,  B. Peters,  J. Ritchie,  N. E. Schultz,  
 N. Shenvi,  A. C. Simmonett,  K. S. Thanthiriwatte,  Q. Wu,  W. Zhang

 Please cite Q-Chem as follows:
 Y. Shao et al., Mol. Phys. 113, 184-215 (2015)
 DOI: 10.1080/00268976.2014.952696

 Q-Chem 4.3.0 for Intel X86 EM64T Linux

 Parts of Q-Chem use Armadillo 5.200.1 (Boston Tea Smuggler).
 http://arma.sourceforge.net/

 Q-Chem begins on Mon Mar 20 16:10:58 2017  


Host: 0

     Scratch files written to /home/nmayhall/scratch_qchem/00//
 Dec1416 |home|nmayhall|qcSoftware|qchem|qchem.svn-casman|libmdc|qstr_RNUM -1
 Using version located at /home/nmayhall/qcSoftware/qchem/qchem.svn-casman/bin/qchem


Total Memory Limit in MB = 2000
Mega-Array Size in MB = 62

Checking the input file for inconsistencies... 	...done.

 Q-Chem warning in module /home/nmayhall/qcSoftware/qchem/qchem.svn-casman/forms1/BasisType.C, line 1452:

 You are not using the predefined 5D/6D in this basis set.

Finally everything over in PARseQInput

--------------------------------------------------------------
User input:
--------------------------------------------------------------
$rem
	exchange 		hf
	unrestricted		1
	basis			6-31g*	
	aux_basis		rimp2-vdz
	scf_guess		core	
	scf_convergence		8
	purecart		1111

	symmetry		0
	sym_ignore		1

	!correlation		sf-cas
	!cas_n_spin_flip		1
	!cas_local		1
	gui			2
$end

$development
	1sf_heis_projection	1
$end

$molecule
0 13
H         -0.73854       -0.54065        0.08576
H         -2.31340       -1.01748       -0.67017
H         -2.09582        0.65549       -0.01146
H         -2.21044       -0.75437        1.11995
H	1.47674	3.07203	0.09828
H	0.1685	3.66022	1.20546
H	0.18287	1.9348	0.65668
H	-0.21686	3.25528	-0.51743
H          3.48850       -0.87553       -0.06084
H          2.29649        0.48578       -0.00191
H          1.93960       -1.06676        0.85992
H          1.91588       -1.00965       -0.95022
He	10	10	10	
He	-10	10	10	
$end


--------------------------------------------------------------
 ----------------------------------------------------------------
             Standard Nuclear Orientation (Angstroms)
    I     Atom           X                Y                Z
 ----------------------------------------------------------------
    1      H      -0.7385400000    -0.5406500000     0.0857600000
    2      H      -2.3134000000    -1.0174800000    -0.6701700000
    3      H      -2.0958200000     0.6554900000    -0.0114600000
    4      H      -2.2104400000    -0.7543700000     1.1199500000
    5      H       1.4767400000     3.0720300000     0.0982800000
    6      H       0.1685000000     3.6602200000     1.2054600000
    7      H       0.1828700000     1.9348000000     0.6566800000
    8      H      -0.2168600000     3.2552800000    -0.5174300000
    9      H       3.4885000000    -0.8755300000    -0.0608400000
   10      H       2.2964900000     0.4857800000    -0.0019100000
   11      H       1.9396000000    -1.0667600000     0.8599200000
   12      H       1.9158800000    -1.0096500000    -0.9502200000
   13      He     10.0000000000    10.0000000000    10.0000000000
   14      He    -10.0000000000    10.0000000000    10.0000000000
 ----------------------------------------------------------------
 Nuclear Repulsion Energy =    12.9966277268 hartrees
 There are       14 alpha and        2 beta electrons
 Requested basis set is 6-31G(d)
 There are 28 shells and 28 basis functions

Total QAlloc Memory Limit   2000 MB
Mega-Array Size        61 MB
MEM_STATIC part        62 MB

finished with qalloc call

                       Distance Matrix (Angstroms)
             H (  1)   H (  2)   H (  3)   H (  4)   H (  5)   H (  6)
   H (  2)  1.810796
   H (  3)  1.811743  1.811096
   H (  4)  1.811550  1.812280  1.811334
   H (  5)  4.237815  5.628478  4.314498  5.411141
   H (  6)  4.441144  5.617712  3.954294  5.015503  1.811990
   H (  7)  2.702369  4.087524  2.697309  3.629626  1.810857  1.810646
   H (  8)  3.878798  4.761858  3.247369  4.767879  1.811342  1.811306
   H (  9)  4.242818  5.835536  5.790604  5.821242  4.433478  5.761852
   H ( 10)  3.205098  4.894635  4.395598  4.807178  2.714906  4.007886
   H ( 11)  2.836997  4.520134  4.473261  4.169896  4.233665  5.059697
   H ( 12)  2.887761  4.238549  4.443838  4.623558  4.237016  5.432125
   He( 13) 18.019814 19.668686 18.271783 18.536629 14.788062 14.635407
   He( 14) 17.180573 17.155792 15.812187 15.974636 16.666025 14.863887
             H (  7)   H (  8)   H (  9)   H ( 10)   H ( 11)   H ( 12)
   H (  8)  1.811625
   H (  9)  4.397724  5.567922
   H ( 10)  2.645900  3.775291  1.810394
   H ( 11)  3.483787  5.022693  1.812032  1.811216
   H ( 12)  3.775611  4.788060  1.811662  1.811206  1.811196
   He( 13) 15.770895 16.139759 16.183241 15.808310 16.461600 17.506362
   He( 14) 16.001122 15.868756 20.035900 18.486813 18.669984 19.573143
             He( 13)
   He( 14) 20.000000


 Q-Chem warning in module /home/nmayhall/qcSoftware/qchem/qchem.svn-casman/forms1/BasisType.C, line 1375:

 SAD: How to set up polarization functions for non-Pople basis?

 Requested basis set is rimp2-VDZ
 There are 82 shells and 186 basis functions
 Job number = 2, Threshold = 1.00E-11
Integral type ranges set in mkLRange.C for JobNum: 2  <1-7|1-7>
Symmetry turned off temporarily
 Using the largest function pair in Schwarz integrals
Total number of integrals generated =            1014
Symmetry turned back on
 A cutoff of  1.0D-11 yielded    288 shell pairs
 There are       288 function pairs
 Job number = 11, Threshold = 1.00E-11
Integral type ranges set in mkLRange.C for JobNum: 11  <1-1|8-8>

 -------------------------------------------------------
 OpenMP Integral Computing Module                       
 Release: version 1.0, May 2013, Q-Chem Inc. Pittsburgh 
 -------------------------------------------------------
 Integral Job Info:
 Integral job number is                      11
 Integral operator is                         1
 short-range coefficients                     0
 long-range coefficients              100000000
 Omega coefficients                           0
 if combine SR and LR in K                    0
 Integral screening is                        0
 Integral computing path is                   2
 max size of driver memory is            800000
 size of driver memory is                 11780
 size of scratch memory is               800000
 max col of scratch BK array                289
 max len of scratch array in speh3            1
 max len of scratch index in speh4            2
 max int batch size is                      520
 min int batch size is                       52
 fixed nKL is                               520
 max L of basis functions is                  0
 order of int derivative is                   0
 number of shells is                         28
 number of basis is                          28
 number of cartesian basis is                28
 number of contracted shell pairs           288
 number of primitive shell pairs            814
 maxK2 (contraction) of shell pair            9
 max number of K2 of shell pair               1
 max number of CS2 of shell pair            148
 max number of PS2 of shell pair            444
 mem total for path MDJ                    6792
 -------------------------------------------------------
 Smallest overlap matrix eigenvalue = 1.86E-01
 Multipole matrices computed through 2nd order

  Scale SEOQF with 1.000000e-02/1.000000e-02/1.000000e-02

 Standard Electronic Orientation quadrupole field applied
 Nucleus-field energy     =     0.0000000004 hartrees
GuessMan:  IGuess = 1
 Guess MOs from core Hamiltonian diagonalization
scfman initvdwdat 
 An unrestricted Hartree-Fock SCF calculation will be
 performed using Pulay DIIS extrapolation
 SCF converges when DIIS error is below 1.0E-08
Finding J and K together
 Job number = 22, Threshold = 1.00E-11
Integral type ranges set in mkLRange.C for JobNum: 22  <1-1|1-1>
Storing 4368.95% of integrals
Total number of integrals generated =           38245
 MakeJK  time:  CPU       0.02 s  wall       0.02 s
Fock build time:  0.02 s (CPU) 0.02 s (wall)
DIIS Errors:  Max 3.63E-01 RMS 3.10E-02

Current DIIS subspace size = 1
REM_GRID_RESTART_DIIS = 0

 ---------------------------------------
  Cycle       Energy         DIIS Error
 ---------------------------------------
    1      -9.4317861113      3.10E-02  00000
Finding J and K together
 Job number = 22, Threshold = 1.00E-11
Integral type ranges set in mkLRange.C for JobNum: 22  <1-1|1-1>
Storing 4368.95% of integrals
Reusing in-core integrals buffer for job 22
 MakeJK  time:  CPU       0.00 s  wall       0.00 s
Fock build time:  0.00 s (CPU) 0.00 s (wall)
DIIS Errors:  Max 2.54E-01 RMS 1.94E-02

Current DIIS subspace size = 2
REM_GRID_RESTART_DIIS = 0

    2     -11.3645339018      1.94E-02  00000
Finding J and K together
 Job number = 22, Threshold = 1.00E-11
Integral type ranges set in mkLRange.C for JobNum: 22  <1-1|1-1>
Storing 4368.95% of integrals
Reusing in-core integrals buffer for job 22
 MakeJK  time:  CPU       0.00 s  wall       0.00 s
Fock build time:  0.00 s (CPU) 0.00 s (wall)
DIIS Errors:  Max 1.04E-01 RMS 8.30E-03

Current DIIS subspace size = 3
REM_GRID_RESTART_DIIS = 0

    3     -11.4347031730      8.30E-03  00000
Finding J and K together
 Job number = 22, Threshold = 1.00E-11
Integral type ranges set in mkLRange.C for JobNum: 22  <1-1|1-1>
Storing 4368.95% of integrals
Reusing in-core integrals buffer for job 22
 MakeJK  time:  CPU       0.00 s  wall       0.00 s
Fock build time:  0.00 s (CPU) 0.00 s (wall)
DIIS Errors:  Max 9.53E-03 RMS 9.43E-04

Current DIIS subspace size = 4
REM_GRID_RESTART_DIIS = 0

    4     -11.4647872574      9.43E-04  00000
Finding J and K together
 Job number = 22, Threshold = 1.00E-11
Integral type ranges set in mkLRange.C for JobNum: 22  <1-1|1-1>
Storing 4368.95% of integrals
Reusing in-core integrals buffer for job 22
 MakeJK  time:  CPU       0.00 s  wall       0.00 s
Fock build time:  0.00 s (CPU) 0.00 s (wall)
DIIS Errors:  Max 1.34E-04 RMS 1.06E-05

Current DIIS subspace size = 5
REM_GRID_RESTART_DIIS = 0

    5     -11.4674473113      1.06E-05  00000
Finding J and K together
 Job number = 22, Threshold = 1.00E-11
Integral type ranges set in mkLRange.C for JobNum: 22  <1-1|1-1>
Storing 4368.95% of integrals
Reusing in-core integrals buffer for job 22
 MakeJK  time:  CPU       0.00 s  wall       0.00 s
Fock build time:  0.00 s (CPU) 0.00 s (wall)
DIIS Errors:  Max 1.33E-05 RMS 1.02E-06

Current DIIS subspace size = 6
REM_GRID_RESTART_DIIS = 0

    6     -11.4675552067      1.02E-06  00000
Finding J and K together
 Job number = 22, Threshold = 1.00E-11
Integral type ranges set in mkLRange.C for JobNum: 22  <1-1|1-1>
Storing 4368.95% of integrals
Reusing in-core integrals buffer for job 22
 MakeJK  time:  CPU       0.00 s  wall       0.00 s
Fock build time:  0.00 s (CPU) 0.00 s (wall)
DIIS Errors:  Max 9.67E-07 RMS 7.75E-08

Current DIIS subspace size = 7
REM_GRID_RESTART_DIIS = 0

    7     -11.4675712992      7.75E-08  00000
Finding J and K together
 Job number = 22, Threshold = 1.00E-11
Integral type ranges set in mkLRange.C for JobNum: 22  <1-1|1-1>
Storing 4368.95% of integrals
Reusing in-core integrals buffer for job 22
 MakeJK  time:  CPU       0.00 s  wall       0.00 s
Fock build time:  0.00 s (CPU) 0.00 s (wall)
DIIS Errors:  Max 1.05E-07 RMS 8.58E-09

Current DIIS subspace size = 8
REM_GRID_RESTART_DIIS = 0

    8     -11.4675743890      8.58E-09  00000 Convergence criterion met
 ---------------------------------------
 <S^2> = 42.0000
 SCF time:  CPU 0.04 s  wall 0.04 s
 SCF   energy in the final basis set = -11.4675743890
 Total energy in the final basis set = -11.4675743890
Symmetry turned off temporarily
 Analysis of SCF Wavefunction

 --------------------------------------------------------------

                    Orbital Energies (a.u.)
 --------------------------------------------------------------

 Alpha MOs
 -- Occupied --
 -0.914  -0.914  -0.716  -0.698  -0.697  -0.480  -0.471  -0.465
 -0.456  -0.453  -0.452  -0.441  -0.438  -0.427
 -- Virtual --
  0.814   0.853   0.868   0.899   0.927   0.929   0.973   0.992
  1.017   1.057   1.158   1.194   1.400   1.400

 Beta MOs
 -- Occupied --
 -0.914  -0.914
 -- Virtual --
 -0.057  -0.033  -0.031   0.128   0.139   0.146   0.159   0.166
  0.167   0.189   0.195   0.212   1.043   1.071   1.084   1.107
  1.130   1.132   1.171   1.188   1.210   1.259   1.354   1.387
  1.400   1.400
 --------------------------------------------------------------

          Ground-State Mulliken Net Atomic Charges

     Atom                 Charge (a.u.)    Spin (a.u.)
  --------------------------------------------------------
      1 H                     0.000046       0.999954
      2 H                     0.000055       0.999945
      3 H                    -0.000018       1.000018
      4 H                    -0.000003       1.000003
      5 H                    -0.000040       1.000040
      6 H                     0.000041       0.999959
      7 H                     0.000035       0.999965
      8 H                    -0.000060       1.000060
      9 H                     0.000073       0.999927
     10 H                     0.000060       0.999940
     11 H                    -0.000098       1.000098
     12 H                    -0.000090       1.000090
     13 He                    0.000000       0.000000
     14 He                    0.000000      -0.000000
  --------------------------------------------------------
  Sum of atomic charges =    -0.000000
  Sum of spin   charges =    12.000000

 -----------------------------------------------------------------
                    Cartesian Multipole Moments
 -----------------------------------------------------------------
    Charge (ESU x 10^10)
                -0.0000
    Dipole Moment (Debye)
         X       0.0002      Y      -0.0005      Z       0.0004
       Tot       0.0007
    Quadrupole Moments (Debye-Ang)
        XX     -19.7003     XY       0.0215     YY     -19.6795
        XZ      -0.0018     YZ      -0.0405     ZZ     -19.5104
    Octopole Moments (Debye-Ang^2)
       XXX     -19.5717    XXY     -31.5310    XYY      -4.8816
       YYY     -98.1850    XXZ     -22.8788    XYZ      -0.0214
       YYZ     -23.9049    XZZ      -4.1018    YZZ     -31.5980
       ZZZ     -70.7123
    Hexadecapole Moments (Debye-Ang^3)
      XXXX   -1643.4781   XXXY      -7.6010   XXYY    -547.8807
      XYYY      -7.2610   YYYY   -1634.0588   XXXZ       3.4497
      XXYZ    -213.5023   XYYZ       0.0904   YYYZ    -648.3617
      XXZZ    -491.0220   XYZZ      -2.2563   YYZZ    -497.5042
      XZZZ       4.4662   YZZZ    -643.9119   ZZZZ   -1318.2381
 -----------------------------------------------------------------
 JobOver = TRUE
Archival summary:
1\1\sinatra\SP\HF\6-31G*\e212()\nmayhall\MonMar2016:10:582017MonMar2016:10:582017\0\\#,HF,6-31G*,\\0,13\H\H,1,1.81065\H,1,1.81086,2,60.0452\H,2,1.81131,1,60.0237,3,-70.5123,0\H,1,2.6459,2,127.132,3,-28.852,0\H,5,1.81039,1,161.062,2,-128.385,0\H,5,1.81121,1,114.496,2,162.928,0\H,7,1.8112,5,60.0005,1,89.002,0\H,1,2.69731,2,121.355,3,139.819,0\H,9,1.8111,1,129.028,2,-176.133,0\H,10,1.8108,9,60.0291,1,-15.5086,0\H,9,1.81133,1,105.539,2,120.091,0\He,2,14.6354,1,126.128,3,67.0984,0\He,2,14.8639,1,126.242,3,-178.626,0\\HF=-11.4675744\\@

 Total job time:  0.11s(wall), 0.10s(cpu) 
 Mon Mar 20 16:10:58 2017

        *************************************************************
        *                                                           *
        *  Thank you very much for using Q-Chem.  Have a nice day.  *
        *                                                           *
        *************************************************************


*** MISSION COMPLETED -- STARFLEET OUT ***

 
User input: 2 of 2 
 
                  Welcome to Q-Chem
     A Quantum Leap Into The Future Of Chemistry


 Q-Chem 4.3, Q-Chem, Inc., Pleasanton, CA (2015)

 Y. Shao,  Z. Gan,  E. Epifanovsky,  A. T. B. Gilbert,  M. Wormit,  
 J. Kussmann,  A. W. Lange,  A. Behn,  J. Deng,  X. Feng,  D. Ghosh,  
 M. Goldey,  P. R. Horn,  L. D. Jacobson,  I. Kaliman,  R. Z. Khaliullin,  
 T. Kus,  A. Landau,  J. Liu,  E. I. Proynov,  Y. M. Rhee,  R. M. Richard,  
 M. A. Rohrdanz,  R. P. Steele,  E. J. Sundstrom,  H. L. Woodcock III,  
 P. M. Zimmerman,  D. Zuev,  B. Albrecht,  E. Alguire,  B. Austin,  
 S. A. Baeppler,  G. J. O. Beran,  Y. A. Bernard,  E. Berquist,  
 K. Brandhorst,  K. B. Bravaya,  S. T. Brown,  D. Casanova,  C.-M. Chang,  
 Y. Chen,  S. H. Chien,  K. D. Closser,  D. L. Crittenden,  M. Diedenhofen,  
 R. A. DiStasio Jr.,  H. Do,  A. D. Dutoi,  R. G. Edgar,  P.-T. Fang,  
 S. Fatehi,  Q. Feng,  L. Fusti-Molnar,  A. Ghysels,  
 A. Golubeva-Zadorozhnaya,  J. Gomes,  A. Gunina,  M. W. D. Hanson-Heine,  
 P. H. P. Harbach,  A. W. Hauser,  E. G. Hohenstein,  Z. C. Holden,  K. Hui,  
 T.-C. Jagau,  H. Ji,  B. Kaduk,  K. Khistyaev,  Jaehoon Kim,  Jihan Kim,  
 R. A. King,  P. Klunzinger,  D. Kosenkov,  T. Kowalczyk,  C. M. Krauter,  
 K. U. Lao,  A. Laurent,  K. V. Lawler,  S. Lehtola,  S. V. Levchenko,  
 C. Y. Lin,  Y.-S. Lin,  F. Liu,  E. Livshits,  R. C. Lochan,  A. Luenser,  
 P. Manohar,  S. F. Manzer,  S.-P. Mao,  N. Mardirossian,  A. V. Marenich,  
 L. A. Martinez-Martinez,  S. A. Maurer,  N. J. Mayhall,  K. Nanda,  
 C. M. Oana,  R. Olivares-Amaya,  D. P. O'Neill,  J. A. Parkhill,  
 T. M. Perrine,  R. Peverati,  P. A. Pieniazek,  F. Plasser,  A. Prociuk,  
 D. R. Rehn,  E. Rosta,  N. J. Russ,  N. Sergueev,  S. M. Sharada,  
 S. Sharma,  D. W. Small,  A. Sodt,  T. Stauch,  T. Stein,  D. Stuck,  
 Y.-C. Su,  A. J. W. Thom,  T. Tsuchimochi,  L. Vogt,  O. Vydrov,  T. Wang,  
 M. A. Watson,  J. Wenzel,  A. White,  C. F. Williams,  V. Vanovschi,  
 S. Yeganeh,  S. R. Yost,  Z.-Q. You,  I. Y. Zhang,  X. Zhang,  Y. Zhao,  
 B. R. Brooks,  G. K. L. Chan,  D. M. Chipman,  C. J. Cramer,  
 W. A. Goddard III,  M. S. Gordon,  W. J. Hehre,  A. Klamt,  
 H. F. Schaefer III,  M. W. Schmidt,  C. D. Sherrill,  D. G. Truhlar,  
 A. Warshel,  X. Xu,  A. Aspuru-Guzik,  R. Baer,  A. T. Bell,  N. A. Besley,  
 J.-D. Chai,  A. Dreuw,  B. D. Dunietz,  T. R. Furlani,  S. R. Gwaltney,  
 C.-P. Hsu,  Y. Jung,  J. Kong,  D. S. Lambrecht,  W. Liang,  C. Ochsenfeld,  
 V. A. Rassolov,  L. V. Slipchenko,  J. E. Subotnik,  T. Van Voorhis,  
 J. M. Herbert,  A. I. Krylov,  P. M. W. Gill,  M. Head-Gordon

 Contributors to earlier versions of Q-Chem not listed above: 
 R. D. Adamson,  J. Baker,  E. F. C. Byrd,  A. K. Chakraborty,  C.-L. Cheng,  
 H. Dachsel,  R. J. Doerksen,  G. Hawkins,  A. Heyden,  S. Hirata,  
 G. Kedziora,  F. J. Keil,  C. Kelley,  P. P. Korambath,  W. Kurlancheek,  
 A. M. Lee,  M. S. Lee,  D. Liotard,  I. Lotan,  P. E. Maslen,  N. Nair,  
 D. Neuhauser,  R. Olson,  B. Peters,  J. Ritchie,  N. E. Schultz,  
 N. Shenvi,  A. C. Simmonett,  K. S. Thanthiriwatte,  Q. Wu,  W. Zhang

 Please cite Q-Chem as follows:
 Y. Shao et al., Mol. Phys. 113, 184-215 (2015)
 DOI: 10.1080/00268976.2014.952696

 Q-Chem 4.3.0 for Intel X86 EM64T Linux

 Parts of Q-Chem use Armadillo 5.200.1 (Boston Tea Smuggler).
 http://arma.sourceforge.net/

 Q-Chem begins on Mon Mar 20 16:10:58 2017  


Host: 0

     Scratch files written to /home/nmayhall/scratch_qchem/00//
 Dec1416 |home|nmayhall|qcSoftware|qchem|qchem.svn-casman|libmdc|qstr_RNUM -1
 Using version located at /home/nmayhall/qcSoftware/qchem/qchem.svn-casman/bin/qchem

 Turning off symmetry for CASMAN

Total Memory Limit in MB = 2000
Mega-Array Size in MB = 62

Checking the input file for inconsistencies... 	...done.

 Q-Chem warning in module /home/nmayhall/qcSoftware/qchem/qchem.svn-casman/forms1/BasisType.C, line 1452:

 You are not using the predefined 5D/6D in this basis set.

Finally everything over in PARseQInput

--------------------------------------------------------------
User input:
--------------------------------------------------------------
$rem
	exchange 		hf
	unrestricted		0
	basis			6-31g*	
	aux_basis		rimp2-vdz
	scf_guess		read	
	scf_convergence		8
	purecart		1111

	symmetry		0
	sym_ignore		1

	correlation		sf-cas
	cas_n_spin_flip		1
	cas_local		1
	gui			2
$end

$development
	1sf_heis_projection	1
	scf_corresponding_orbs	1
$end

$molecule
read
$end

--------------------------------------------------------------
 ----------------------------------------------------------------
             Standard Nuclear Orientation (Angstroms)
    I     Atom           X                Y                Z
 ----------------------------------------------------------------
    1      H      -0.7385400000    -0.5406500000     0.0857600000
    2      H      -2.3134000000    -1.0174800000    -0.6701700000
    3      H      -2.0958200000     0.6554900000    -0.0114600000
    4      H      -2.2104400000    -0.7543700000     1.1199500000
    5      H       1.4767400000     3.0720300000     0.0982800000
    6      H       0.1685000000     3.6602200000     1.2054600000
    7      H       0.1828700000     1.9348000000     0.6566800000
    8      H      -0.2168600000     3.2552800000    -0.5174300000
    9      H       3.4885000000    -0.8755300000    -0.0608400000
   10      H       2.2964900000     0.4857800000    -0.0019100000
   11      H       1.9396000000    -1.0667600000     0.8599200000
   12      H       1.9158800000    -1.0096500000    -0.9502200000
   13      He     10.0000000000    10.0000000000    10.0000000000
   14      He    -10.0000000000    10.0000000000    10.0000000000
 ----------------------------------------------------------------
 Nuclear Repulsion Energy =    12.9966277268 hartrees
 There are       14 alpha and        2 beta electrons
 Requested basis set is 6-31G(d)
 There are 28 shells and 28 basis functions

Total QAlloc Memory Limit   2000 MB
Mega-Array Size        61 MB
MEM_STATIC part        62 MB

finished with qalloc call

                       Distance Matrix (Angstroms)
             H (  1)   H (  2)   H (  3)   H (  4)   H (  5)   H (  6)
   H (  2)  1.810796
   H (  3)  1.811743  1.811096
   H (  4)  1.811550  1.812280  1.811334
   H (  5)  4.237815  5.628478  4.314498  5.411141
   H (  6)  4.441144  5.617712  3.954294  5.015503  1.811990
   H (  7)  2.702369  4.087524  2.697309  3.629626  1.810857  1.810646
   H (  8)  3.878798  4.761858  3.247369  4.767879  1.811342  1.811306
   H (  9)  4.242818  5.835536  5.790604  5.821242  4.433478  5.761852
   H ( 10)  3.205098  4.894635  4.395598  4.807178  2.714906  4.007886
   H ( 11)  2.836997  4.520134  4.473261  4.169896  4.233665  5.059697
   H ( 12)  2.887761  4.238549  4.443838  4.623558  4.237016  5.432125
   He( 13) 18.019814 19.668686 18.271783 18.536629 14.788062 14.635407
   He( 14) 17.180573 17.155792 15.812187 15.974636 16.666025 14.863887
             H (  7)   H (  8)   H (  9)   H ( 10)   H ( 11)   H ( 12)
   H (  8)  1.811625
   H (  9)  4.397724  5.567922
   H ( 10)  2.645900  3.775291  1.810394
   H ( 11)  3.483787  5.022693  1.812032  1.811216
   H ( 12)  3.775611  4.788060  1.811662  1.811206  1.811196
   He( 13) 15.770895 16.139759 16.183241 15.808310 16.461600 17.506362
   He( 14) 16.001122 15.868756 20.035900 18.486813 18.669984 19.573143
             He( 13)
   He( 14) 20.000000


 Q-Chem warning in module /home/nmayhall/qcSoftware/qchem/qchem.svn-casman/forms1/BasisType.C, line 1375:

 SAD: How to set up polarization functions for non-Pople basis?

 Requested basis set is rimp2-VDZ
 There are 82 shells and 186 basis functions
 Job number = 2, Threshold = 1.00E-12
Integral type ranges set in mkLRange.C for JobNum: 2  <1-7|1-7>
Symmetry turned off temporarily
 Using the largest function pair in Schwarz integrals
Total number of integrals generated =            1015
Symmetry turned back on
 A cutoff of  1.0D-12 yielded    289 shell pairs
 There are       289 function pairs
 Job number = 11, Threshold = 1.00E-12
Integral type ranges set in mkLRange.C for JobNum: 11  <1-1|8-8>

 -------------------------------------------------------
 OpenMP Integral Computing Module                       
 Release: version 1.0, May 2013, Q-Chem Inc. Pittsburgh 
 -------------------------------------------------------
 Integral Job Info:
 Integral job number is                      11
 Integral operator is                         1
 short-range coefficients                     0
 long-range coefficients              100000000
 Omega coefficients                           0
 if combine SR and LR in K                    0
 Integral screening is                        0
 Integral computing path is                   2
 max size of driver memory is            800000
 size of driver memory is                 11780
 size of scratch memory is               800000
 max col of scratch BK array                289
 max len of scratch array in speh3            1
 max len of scratch index in speh4            2
 max int batch size is                      520
 min int batch size is                       52
 fixed nKL is                               520
 max L of basis functions is                  0
 order of int derivative is                   0
 number of shells is                         28
 number of basis is                          28
 number of cartesian basis is                28
 number of contracted shell pairs           289
 number of primitive shell pairs            819
 maxK2 (contraction) of shell pair            9
 max number of K2 of shell pair               1
 max number of CS2 of shell pair            148
 max number of PS2 of shell pair            444
 mem total for path MDJ                    6792
 -------------------------------------------------------
 Smallest overlap matrix eigenvalue = 1.86E-01
 Multipole matrices computed through 2nd order

  Scale SEOQF with 1.000000e-02/1.000000e-02/1.000000e-02

 Standard Electronic Orientation quadrupole field applied
 Nucleus-field energy     =     0.0000000004 hartrees
GuessMan:  IGuess = 1000
 Guess MOs from SCF MO coefficient file
 Reading MOs from coefficient file
 Reading MOs from coefficient file
scfman initvdwdat 
 A restricted Hartree-Fock SCF calculation will be
 performed using Geometric Direct Minimization
 SCF converges when RMS gradient is below 1.0E-08
Finding J and K together
 Job number = 22, Threshold = 1.00E-12
Integral type ranges set in mkLRange.C for JobNum: 22  <1-1|1-1>
Storing 4338.82% of integrals
Total number of integrals generated =           39239
 MakeJK  time:  CPU       0.01 s  wall       0.01 s
Fock build time:  0.01 s (CPU) 0.01 s (wall)
 ---------------------------------------
  Cycle       Energy        RMS Gradient
 ---------------------------------------
    1     -11.4675747573      2.54E-04  00000 Normal BFGS step
Finding J and K together
 Job number = 22, Threshold = 1.00E-12
Integral type ranges set in mkLRange.C for JobNum: 22  <1-1|1-1>
Storing 4338.82% of integrals
Reusing in-core integrals buffer for job 22
 MakeJK  time:  CPU       0.00 s  wall       0.00 s
Fock build time:  0.00 s (CPU) 0.00 s (wall)
    2     -11.4675747915      2.34E-09  00000 Convergence criterion met
 ---------------------------------------
 SCF time:  CPU 0.02 s  wall 0.02 s
 Obtaining Corresponding orbitals

 Forming corresponding orbitals block-by-block...
 Size of singly occupied alpha block:      12 : 12.0000
 Size of doubly occupied block:             2 : 2.0000
 Size of singly occupied beta block:        0 : 0.0000
 Size of unoccupied block:                 14 : 14.0000
 Use scf_boys =     0 (Canonical)
                    1 (Boys)
                    2 (Pipek-Mezey)
                    3 (ER)
 Build new fock matrix
 I'm here
 I'm here
 Calling AOints...
 Job number = 22, Threshold = 1.00E-12
Integral type ranges set in mkLRange.C for JobNum: 22  <1-1|1-1>
Storing 4338.82% of integrals
 done.
 E(SCF): disk=    -11.467574791507 current=    -11.467574791507 diff=   0.000e+00
 SCF   energy in the final basis set = -11.4675747915
 Total energy in the final basis set = -11.4675747915
 DevKeyword Parameters: 
 1sf_heis_projection                   1
scf_corresponding_orbs                   1


 ========================================================
                       In SF-CAS-CI                      
 ========================================================
 DevKeyword Parameters: 
 1sf_heis_projection                   1
scf_corresponding_orbs                   1

 Forming orbitals for SF-CAS calculation.
NBas   : 28
NOrb   : 28
NDOcc  : 2
NSOcc  : 12
NDVir  : 14
ISpin  : 0
e_hf: -11.46757479
 Using OPT1 Orbitals: Favg | Favg | Favg 
 A/B mix in Doubly occupied F  : 0.50000000
 A/B mix in Singly occupied F  : 0.50000000
 A/B mix in Doubly unoccupied F: 0.50000000
 Max of F(beta)ds      : 5.339e-16
 Max of F(alpha)sv     : 1.845e-11
 Max of F(average)dv   : 1.345e-10
 Orbital Energies  (D):
    1    -0.91413113    -0.91413113
    2    -0.91412506    -0.91412506
 Orbital Energies  (S):
    3    -0.37248662    -0.37248662
    4    -0.35320276    -0.35320276
    5    -0.35133257    -0.35133257
    6    -0.15495337    -0.15495337
    7    -0.14591978    -0.14591978
    8    -0.13961558    -0.13961558
    9    -0.12924642    -0.12924642
   10    -0.12519009    -0.12519009
   11    -0.12462020    -0.12462020
   12    -0.11010546    -0.11010546
   13    -0.10590581    -0.10590581
   14    -0.09280805    -0.09280805
 Orbital Energies  (V):
   15     0.90681373     0.90681373
   16     0.94156513     0.94156513
   17     0.95609705     0.95609705
   18     0.98363657     0.98363657
   19     1.01040658     1.01040658
   20     1.01227727     1.01227727
   21     1.05520330     1.05520330
   22     1.07378090     1.07378090
   23     1.09807512     1.09807512
   24     1.14485706     1.14485706
   25     1.24449154     1.24449154
   26     1.27914222     1.27914222
   27     1.39985484     1.39985484
   28     1.39986091     1.39986091
 tr(Pa)     :   14.0000000000
 tr(Pb)     :    2.0000000000
 E(core) with new P : -39.07758588
 E(HF) with new P   : -11.46757479
 Difference in Ehf  :   1.0658e-14

 Number of spin flips: 1
 Use cas_local =    0 (Canonical)
                    1 (Boys)
                    2 (Pipek-Mezey)
                    3 (ER)
 Using Boys orbitals in casman
 
 
 
Calling Get_Boys in C++
 
 
 
Orbital 12 Variance 21.38457166
Orbital 9 Variance 22.19857425
Orbital 5 Variance 22.54246286
Orbital 8 Variance 23.31350398
Orbital 2 Variance 23.44972524
Orbital 3 Variance 23.53497586
Orbital 1 Variance 24.50838734
Orbital 6 Variance 26.68077918
Orbital 4 Variance 26.94300249
Orbital 11 Variance 27.47518675
Orbital 10 Variance 27.88750159
Orbital 7 Variance 30.01929759
          ***** NUMBER OF SADDLE POINTS SO FAR = 0 ******

Initially in boys_jacobi.C before sweep, get_boys, boysval = 62.453008
In BOYS_JACOBI SWEEPS for get_boys, ending in round     6  because max_diff = 4.401084e-07


---> BEGIN 2nd Der Calculation    ******  
Guessing MaxD =  20 and MinD = 10
in get_boys.C: p = 0 guessthresh  52.3503710909 numsofar 18 MinD 10
in get_boys.C: p = 1 guessthresh  51.8503710909 numsofar 18 MinD 10
in get_boys.C: p = 2 guessthresh  51.6003710909 numsofar 7 MinD 10
DimInGuess 7 mineval  51.3503710909 guessthresh  51.6003710909
round 0 sizeofsub 7 eval0 5.078891e+01 diffeval0 1.000498e+05 length_qM 1.110670e+00 thresh 1.000000e-08
round 1 sizeofsub 8 eval0 5.022011e+01 diffeval0 5.688030e-01 length_qM 1.345662e-01 thresh 1.000000e-08
round 2 sizeofsub 9 eval0 5.021997e+01 diffeval0 1.416282e-04 length_qM 1.480610e-02 thresh 1.000000e-08
round 3 sizeofsub 10 eval0 5.021993e+01 diffeval0 4.003359e-05 length_qM 7.330474e-03 thresh 1.000000e-08
round 4 sizeofsub 11 eval0 5.021993e+01 diffeval0 1.629540e-06 length_qM 5.539004e-03 thresh 1.000000e-08
round 5 sizeofsub 12 eval0 5.021993e+01 diffeval0 6.700990e-07 length_qM 1.459184e-03 thresh 1.000000e-08
round 6 sizeofsub 13 eval0 5.021993e+01 diffeval0 8.533065e-08 length_qM 1.630524e-04 thresh 1.000000e-08
round 7 sizeofsub 14 eval0 5.021993e+01 diffeval0 1.446665e-09 length_qM 2.617956e-04 thresh 1.000000e-08
round 8 sizeofsub 15 eval0 5.021993e+01 diffeval0 3.398760e-09 length_qM 1.004735e-04 thresh 1.000000e-08
round 9 sizeofsub 16 eval0 5.021993e+01 diffeval0 6.177103e-10 length_qM 1.641582e-05 thresh 1.000000e-08
round 10 sizeofsub 17 eval0 5.021993e+01 diffeval0 3.576162e-11 length_qM 2.624248e-05 thresh 1.000000e-08
round 11 sizeofsub 18 eval0 5.021993e+01 diffeval0 8.988366e-12 length_qM 8.509162e-07 thresh 1.000000e-08
Converged to smallest eigenvalue: eval0 5.021993e+01

Success!!! No Negative Eigenvalues: Ending Get Boys in C++ ...Bye Bye
Orbital 12 Variance 2.74566426
Orbital 11 Variance 2.75332537
Orbital 10 Variance 2.75521922
Orbital 5 Variance 2.76570643
Orbital 6 Variance 2.76760483
Orbital 9 Variance 2.77147175
Orbital 4 Variance 2.77228067
Orbital 3 Variance 2.77372334
Orbital 7 Variance 2.77409936
Orbital 2 Variance 2.77464832
Orbital 8 Variance 2.77520792
Orbital 1 Variance 2.77599793
EXECUTING ORTHO_FUNC DESTRUCTOR

 Dimensions of orbital sub-spaces:    
 Number Hole Orbs:Alpha:Beta:       2    2    2
 Number Active Orbs:Alpha:Beta:    12   11    1
 Number Part Orbs:Alpha:Beta:      14    0    0

 Dimensions in SF-RAS-hp calculation: 
 Number of active space determinants:  144
 Number of hole space determinants:    1608
 Number of part space determinants:    11256
 Number of hole-part determinants:     130060
 Total 1x space:                       13008
 Total singles space:                  143068
 REM_MEM_TOT: 2000
 Memory Used: 0
 Memory Left: 2000
 Memory Need: 2
 Constructing 1e MO integrals
 Form (P|Q)**(-1/2)...
 Job number = 66, Threshold = 1.00E-12
Integral type ranges set in mkLRange.C for JobNum: 66  <2-7|2-7>
Symmetry turned off temporarily
Storing 4338.82% of integrals
Total number of integrals generated =           19965
Symmetry turned back on
 Forming (pq|P)...
 Forming Active-Active (aa|P) integrals...

 Entering first-index batching code with I1Strt =    3 batch size =   12
 Job number = 65, Threshold = 1.00E-12
Integral type ranges set in mkLRange.C for JobNum: 65  <1-1|2-7>
Symmetry turned off temporarily
Storing 4338.82% of integrals
Total number of integrals generated =           57222
Symmetry turned back on
 Forming Active-Active B integrals...
 Contracting B matrices to form 2e integrals. 
 Forming 2J-K over o,v with exact integrals
 Calling AOints... Job number = 22, Threshold = 1.00E-12
Integral type ranges set in mkLRange.C for JobNum: 22  <1-1|1-1>
Storing 4338.82% of integrals
Total number of integrals generated =           39239
 done.

 ROHF energy found on disk: 
 E(ROHF):         -11.46757479
-11.46757479
 First 10 Diagonal elements of H: 
 11111111111_ | 1___________        -10.94847812
 11111111111_ | _1__________        -10.92080746
 11111111111_ | __1_________        -11.07354433
 11111111111_ | ___1________        -10.94097884
 11111111111_ | ____1_______        -11.07109970
 11111111111_ | _____1______        -11.00002037
 11111111111_ | ______1_____        -10.93103835
 11111111111_ | _______1____        -11.07367512
 11111111111_ | ________1___        -10.95331434
 11111111111_ | _________1__        -10.99891225
 Fill S2_CAS Matrix...  done.
 Fill H_CAS Matrix...  done.

 Diagonalizing H_CAS 
 Entering cast_sfcas_to_sfcis
 ===================================================================
 Theory           State:          Energy (au)       (eV)       <S2>
 -------------------------------------------------------------------
 SF-CAS               1:       -11.5287380208     0.0000    30.0000
 SF-CAS               2:       -11.5266874866     0.0558    30.0000
 SF-CAS               3:       -11.5258164239     0.0795    30.0000
 SF-CAS               4:       -11.5247015946     0.1098    30.0000
 SF-CAS               5:       -11.5245372526     0.1143    30.0000
 SF-CAS               6:       -11.5243054724     0.1206    30.0000
 SF-CAS               7:       -11.5238745595     0.1323    30.0000
 SF-CAS               8:       -11.5238345628     0.1334    30.0000
 SF-CAS               9:       -11.5237419587     0.1360    30.0000
 SF-CAS              10:       -11.4701981723     1.5930    30.0000
 SF-CAS              11:       -11.4695243156     1.6113    30.0000
 SF-CAS              12:       -11.4675747915     1.6644    42.0000
 SF-CAS              13:       -11.2118945414     8.6218    30.0000
 SF-CAS              14:       -11.2094552479     8.6882    30.0000
 SF-CAS              15:       -11.2076033338     8.7386    30.0000
 SF-CAS              16:       -11.2043660925     8.8267    30.0000
 SF-CAS              17:       -11.2034234839     8.8523    30.0000
 SF-CAS              18:       -11.2026097539     8.8745    30.0000
 SF-CAS              19:       -11.2018010483     8.8965    30.0000
 SF-CAS              20:       -11.2004655470     8.9328    30.0000
 SF-CAS              21:       -11.1995576244     8.9575    30.0000
 SF-CAS              22:       -11.1901445345     9.2137    30.0000
 SF-CAS              23:       -11.1866964635     9.3075    30.0000
 SF-CAS              24:       -11.1835144833     9.3941    30.0000
 SF-CAS              25:       -11.1790588240     9.5153    30.0000
 SF-CAS              26:       -11.1723779706     9.6971    30.0000
 SF-CAS              27:       -11.1718531507     9.7114    30.0000
 SF-CAS              28:       -11.1656898014     9.8791    30.0000
 SF-CAS              29:       -11.1620054026     9.9794    30.0000
 SF-CAS              30:       -11.1582920336    10.0804    30.0000
 SF-CAS              31:       -11.1548277512    10.1747    30.0000
 SF-CAS              32:       -11.1464226759    10.4034    30.0000
 SF-CAS              33:       -11.1450077393    10.4419    30.0000
 SF-CAS              34:       -11.1444617379    10.4568    30.0000
 SF-CAS              35:       -11.1389271262    10.6074    30.0000
 SF-CAS              36:       -11.1335204545    10.7545    30.0000
 SF-CAS              37:       -11.1326079556    10.7794    30.0000
 SF-CAS              38:       -11.1296538022    10.8597    30.0000
 SF-CAS              39:       -11.1259930060    10.9594    30.0000
 SF-CAS              40:       -11.0870824611    12.0182    30.0000
 SF-CAS              41:       -11.0855393789    12.0602    30.0000
 SF-CAS              42:       -11.0842503788    12.0952    30.0000
 SF-CAS              43:       -11.0832635219    12.1221    30.0000
 SF-CAS              44:       -11.0811954308    12.1784    30.0000
 SF-CAS              45:       -11.0808450238    12.1879    30.0000
 SF-CAS              46:       -11.0805307866    12.1965    30.0000
 SF-CAS              47:       -11.0792281474    12.2319    30.0000
 SF-CAS              48:       -11.0790264376    12.2374    30.0000
 SF-CAS              49:       -11.0780493825    12.2640    30.0000
 SF-CAS              50:       -11.0778192543    12.2702    30.0000
 SF-CAS              51:       -11.0771884011    12.2874    30.0000
 SF-CAS              52:       -11.0756173582    12.3302    30.0000
 SF-CAS              53:       -11.0753036892    12.3387    30.0000
 SF-CAS              54:       -11.0750757403    12.3449    30.0000
 SF-CAS              55:       -11.0740247830    12.3735    30.0000
 SF-CAS              56:       -11.0733663935    12.3914    30.0000
 SF-CAS              57:       -11.0700957068    12.4804    30.0000
 SF-CAS              58:       -11.0001243702    14.3844    30.0000
 SF-CAS              59:       -10.9971099861    14.4665    30.0000
 SF-CAS              60:       -10.9931803417    14.5734    30.0000
 SF-CAS              61:       -10.9876700243    14.7234    30.0000
 SF-CAS              62:       -10.9852652901    14.7888    30.0000
 SF-CAS              63:       -10.9799025665    14.9347    30.0000
 SF-CAS              64:       -10.9753826485    15.0577    30.0000
 SF-CAS              65:       -10.9732450026    15.1159    30.0000
 SF-CAS              66:       -10.9718400415    15.1541    30.0000
 SF-CAS              67:       -10.9684556920    15.2462    30.0000
 SF-CAS              68:       -10.9639892926    15.3677    30.0000
 SF-CAS              69:       -10.9612221845    15.4430    30.0000
 SF-CAS              70:       -10.9591586631    15.4992    30.0000
 SF-CAS              71:       -10.9556566504    15.5945    30.0000
 SF-CAS              72:       -10.9552248999    15.6062    30.0000
 SF-CAS              73:       -10.9542522486    15.6327    30.0000
 SF-CAS              74:       -10.9535243155    15.6525    30.0000
 SF-CAS              75:       -10.9515957846    15.7050    30.0000
 SF-CAS              76:       -10.9508755895    15.7246    30.0000
 SF-CAS              77:       -10.9494169351    15.7643    30.0000
 SF-CAS              78:       -10.9475914572    15.8140    30.0000
 SF-CAS              79:       -10.9446793005    15.8932    30.0000
 SF-CAS              80:       -10.9412276684    15.9871    30.0000
 SF-CAS              81:       -10.9386878756    16.0562    30.0000
 SF-CAS              82:       -10.9370120826    16.1018    30.0000
 SF-CAS              83:       -10.9355212812    16.1424    30.0000
 SF-CAS              84:       -10.9343845588    16.1733    30.0000
 SF-CAS              85:       -10.9336351765    16.1937    30.0000
 SF-CAS              86:       -10.9327862488    16.2168    30.0000
 SF-CAS              87:       -10.9312592801    16.2584    30.0000
 SF-CAS              88:       -10.9311077096    16.2625    30.0000
 SF-CAS              89:       -10.9286902019    16.3283    30.0000
 SF-CAS              90:       -10.9275015986    16.3606    30.0000
 SF-CAS              91:       -10.9259179044    16.4037    30.0000
 SF-CAS              92:       -10.9248987336    16.4315    30.0000
 SF-CAS              93:       -10.9237999924    16.4614    30.0000
 SF-CAS              94:       -10.9234692238    16.4704    30.0000
 SF-CAS              95:       -10.9207603501    16.5441    30.0000
 SF-CAS              96:       -10.9205445506    16.5499    30.0000
 SF-CAS              97:       -10.9199540508    16.5660    30.0000
 SF-CAS              98:       -10.9196481384    16.5743    30.0000
 SF-CAS              99:       -10.9174821986    16.6333    30.0000
 SF-CAS             100:       -10.9163315789    16.6646    30.0000
 SF-CAS             101:       -10.9159577237    16.6748    30.0000
 SF-CAS             102:       -10.9134672716    16.7425    30.0000
 SF-CAS             103:       -10.9102082118    16.8312    30.0000
 SF-CAS             104:       -10.9092780106    16.8565    30.0000
 SF-CAS             105:       -10.9079322037    16.8932    30.0000
 SF-CAS             106:       -10.9071480514    16.9145    30.0000
 SF-CAS             107:       -10.9064169017    16.9344    30.0000
 SF-CAS             108:       -10.9046536926    16.9824    30.0000
 SF-CAS             109:       -10.9029100547    17.0298    30.0000
 SF-CAS             110:       -10.9009349112    17.0836    30.0000
 SF-CAS             111:       -10.9002357726    17.1026    30.0000
 SF-CAS             112:       -10.8987300139    17.1436    30.0000
 SF-CAS             113:       -10.8961810053    17.2129    30.0000
 SF-CAS             114:       -10.8956408015    17.2276    30.0000
 SF-CAS             115:       -10.8910844999    17.3516    30.0000
 SF-CAS             116:       -10.8896372742    17.3910    30.0000
 SF-CAS             117:       -10.8841069605    17.5415    30.0000
 SF-CAS             118:       -10.8792289629    17.6742    30.0000
 SF-CAS             119:       -10.8765671629    17.7466    30.0000
 SF-CAS             120:       -10.8762071199    17.7564    30.0000
 SF-CAS             121:       -10.8748595021    17.7931    30.0000
 SF-CAS             122:       -10.8740266257    17.8158    30.0000
 SF-CAS             123:       -10.8725465044    17.8561    30.0000
 SF-CAS             124:       -10.8711122810    17.8951    30.0000
 SF-CAS             125:       -10.8697116784    17.9332    30.0000
 SF-CAS             126:       -10.8676541639    17.9892    30.0000
 SF-CAS             127:       -10.7234102107    21.9143    30.0000
 SF-CAS             128:       -10.7182305572    22.0552    30.0000
 SF-CAS             129:       -10.7161404135    22.1121    30.0000
 SF-CAS             130:       -10.7048178906    22.4202    30.0000
 SF-CAS             131:       -10.7013882387    22.5136    30.0000
 SF-CAS             132:       -10.6970242062    22.6323    30.0000
 SF-CAS             133:       -10.6913978696    22.7854    30.0000
 SF-CAS             134:       -10.6903362018    22.8143    30.0000
 SF-CAS             135:       -10.6843920560    22.9760    30.0000
 SF-CAS             136:       -10.6808414819    23.0727    30.0000
 SF-CAS             137:       -10.6795680495    23.1073    30.0000
 SF-CAS             138:       -10.6773497630    23.1677    30.0000
 SF-CAS             139:       -10.6735865537    23.2701    30.0000
 SF-CAS             140:       -10.6707705287    23.3467    30.0000
 SF-CAS             141:       -10.6664424477    23.4645    30.0000
 SF-CAS             142:       -10.6568675725    23.7250    30.0000
 SF-CAS             143:       -10.6546177712    23.7863    30.0000
 SF-CAS             144:       -10.6467622117    24.0000    30.0000
 ===================================================================

              Active Space Coefficients > 0.20
 -------------------------------------------------------------------
 State  1                       Configuration         Coeff.   <S^2>
 -------------------------------------------------------------------
                  11111111111_ | ___________1      -0.564694  31.000
                  1111111111_1 | __________1_      -0.399736  31.000
                  111111111_11 | _________1__       0.294796  31.000
                  1111111_1111 | _______1____       0.218987  31.000
                  11_111111111 | __1_________      -0.300145  31.000
 -------------------------------------------------------------------
 State  2                       Configuration         Coeff.   <S^2>
 -------------------------------------------------------------------
                  1111111111_1 | __________1_       0.501290  31.000
                  111111111_11 | _________1__       0.385018  31.000
                  111111_11111 | ______1_____       0.280797  31.000
                  1111_1111111 | ____1_______      -0.374471  31.000
                  1_1111111111 | _1__________       0.288586  31.000
                  _11111111111 | 1___________       0.206911  31.000
 -------------------------------------------------------------------
 State  3                       Configuration         Coeff.   <S^2>
 -------------------------------------------------------------------
                  11111111111_ | ___________1      -0.410113  31.000
                  111111111_11 | _________1__      -0.527052  31.000
                  11111111_111 | ________1___      -0.246917  31.000
                  11111_111111 | _____1______       0.315649  31.000
                  1111_1111111 | ____1_______      -0.219691  31.000
                  1_1111111111 | _1__________      -0.218127  31.000
 -------------------------------------------------------------------
 State  4                       Configuration         Coeff.   <S^2>
 -------------------------------------------------------------------
                  1111111111_1 | __________1_      -0.382535  31.000
                  1111111_1111 | _______1____      -0.272860  31.000
                  111111_11111 | ______1_____       0.214171  31.000
                  11111_111111 | _____1______       0.269035  31.000
                  1111_1111111 | ____1_______      -0.402765  31.000
                  11_111111111 | __1_________       0.329311  31.000
                  1_1111111111 | _1__________      -0.410146  31.000
 -------------------------------------------------------------------
 State  5                       Configuration         Coeff.   <S^2>
 -------------------------------------------------------------------
                  11111111111_ | ___________1       0.255624  31.000
                  111111_11111 | ______1_____       0.369127  31.000
                  11111_111111 | _____1______       0.491883  31.000
                  1111_1111111 | ____1_______       0.510808  31.000
 -------------------------------------------------------------------
 State  6                       Configuration         Coeff.   <S^2>
 -------------------------------------------------------------------
                  111111111_11 | _________1__      -0.329577  31.000
                  11111111_111 | ________1___       0.356387  31.000
                  11111_111111 | _____1______       0.410923  31.000
                  111_11111111 | ___1________      -0.310655  31.000
                  1_1111111111 | _1__________       0.525858  31.000
 -------------------------------------------------------------------
 State  7                       Configuration         Coeff.   <S^2>
 -------------------------------------------------------------------
                  11111111_111 | ________1___      -0.577897  31.000
                  1111111_1111 | _______1____       0.238775  31.000
                  111_11111111 | ___1________      -0.626093  31.000
 -------------------------------------------------------------------
 State  8                       Configuration         Coeff.   <S^2>
 -------------------------------------------------------------------
                  11111111_111 | ________1___      -0.250927  31.000
                  1111111_1111 | _______1____      -0.602900  31.000
                  11_111111111 | __1_________      -0.572654  31.000
 -------------------------------------------------------------------
 State  9                       Configuration         Coeff.   <S^2>
 -------------------------------------------------------------------
                  111111_11111 | ______1_____       0.546436  31.000
                  _11111111111 | 1___________      -0.714575  31.000
 -------------------------------------------------------------------
 State  10                      Configuration         Coeff.   <S^2>
 -------------------------------------------------------------------
                  11111111111_ | ___________1       0.371814  31.000
                  11111111_111 | ________1___       0.231993  31.000
                  1111111_1111 | _______1____       0.420606  31.000
                  1111_1111111 | ____1_______      -0.403590  31.000
                  111_11111111 | ___1________      -0.233150  31.000
                  11_111111111 | __1_________      -0.423984  31.000
                  1_1111111111 | _1__________      -0.233920  31.000
 -------------------------------------------------------------------
 State  11                      Configuration         Coeff.   <S^2>
 -------------------------------------------------------------------
                  1111111111_1 | __________1_       0.330934  31.000
                  111111111_11 | _________1__       0.342152  31.000
                  11111111_111 | ________1___       0.334920  31.000
                  111111_11111 | ______1_____      -0.375962  31.000
                  11111_111111 | _____1______       0.362927  31.000
                  111_11111111 | ___1________      -0.337340  31.000
                  1_1111111111 | _1__________      -0.351727  31.000
                  _11111111111 | 1___________      -0.375653  31.000
 -------------------------------------------------------------------
 State  12                      Configuration         Coeff.   <S^2>
 -------------------------------------------------------------------
                  11111111111_ | ___________1       0.288675  31.000
                  1111111111_1 | __________1_      -0.288675  31.000
                  111111111_11 | _________1__       0.288675  31.000
                  11111111_111 | ________1___      -0.288675  31.000
                  1111111_1111 | _______1____       0.288675  31.000
                  111111_11111 | ______1_____      -0.288675  31.000
                  11111_111111 | _____1______       0.288675  31.000
                  1111_1111111 | ____1_______      -0.288675  31.000
                  111_11111111 | ___1________       0.288675  31.000
                  11_111111111 | __1_________      -0.288675  31.000
                  1_1111111111 | _1__________       0.288675  31.000
                  _11111111111 | 1___________      -0.288675  31.000
 -------------------------------------------------------------------
 State  13                      Configuration         Coeff.   <S^2>
 -------------------------------------------------------------------
                  11111111111_ | __1_________      -0.247862  30.000
                  11111111111_ | ____1_______       0.278862  30.000
                  11111111111_ | _____1______       0.213231  30.000
                  11111111111_ | _______1____      -0.230040  30.000
                  11111111111_ | _________1__      -0.252298  30.000
                  1111111111_1 | ___1________       0.203546  30.000
                  1111111111_1 | ____1_______      -0.201818  30.000
                  1111111111_1 | ________1___      -0.203656  30.000
 -------------------------------------------------------------------
 State  14                      Configuration         Coeff.   <S^2>
 -------------------------------------------------------------------
                  111111111_11 | 1___________       0.257368  30.000
                  111111111_11 | ___1________      -0.228735  30.000
                  111111111_11 | _____1______      -0.264005  30.000
                  111111111_11 | ______1_____       0.250266  30.000
                  111111111_11 | ________1___       0.232501  30.000
                  111111111_11 | __________1_       0.223999  30.000
 -------------------------------------------------------------------
 State  15                      Configuration         Coeff.   <S^2>
 -------------------------------------------------------------------
                  1111111111_1 | ___________1       0.201249  30.000
                  1111_1111111 | __1_________      -0.239991  30.000
                  1111_1111111 | ____1_______      -0.206990  31.000
                  1111_1111111 | _______1____      -0.290659  30.000
                  1111_1111111 | ___________1       0.338675  30.000
                  11_111111111 | _______1____      -0.233428  30.000
                  11_111111111 | ___________1       0.236420  30.000
 -------------------------------------------------------------------
 State  16                      Configuration         Coeff.   <S^2>
 -------------------------------------------------------------------
                  1111111111_1 | ___1________      -0.222316  30.000
                  1111111111_1 | ________1___       0.228906  30.000
                  111111_11111 | 1___________       0.205025  30.000
                  1_1111111111 | ___1________       0.282531  30.000
                  1_1111111111 | ________1___      -0.277981  30.000
                  1_1111111111 | __________1_      -0.243981  30.000
 -------------------------------------------------------------------
 State  17                      Configuration         Coeff.   <S^2>
 -------------------------------------------------------------------
                  11111111111_ | _______1____       0.278894  30.000
                  1111111_1111 | ___________1       0.337586  30.000
                  1111_1111111 | __1_________       0.222517  30.000
                  11_111111111 | ____1_______       0.358681  30.000
                  11_111111111 | _______1____      -0.237471  30.000
                  11_111111111 | ___________1       0.279520  30.000
 -------------------------------------------------------------------
 State  18                      Configuration         Coeff.   <S^2>
 -------------------------------------------------------------------
                  111111_11111 | 1___________       0.207606  30.000
                  111111_11111 | _____1______      -0.358462  30.000
                  111111_11111 | ______1_____      -0.205346  31.000
                  111111_11111 | _________1__       0.370651  30.000
                  _11111111111 | 1___________       0.237491  31.000
                  _11111111111 | _____1______       0.385019  30.000
                  _11111111111 | ______1_____      -0.265401  30.000
                  _11111111111 | _________1__      -0.402373  30.000
 -------------------------------------------------------------------
 State  19                      Configuration         Coeff.   <S^2>
 -------------------------------------------------------------------
                  11111111111_ | __1_________      -0.206014  30.000
                  1111111111_1 | _1__________      -0.250430  30.000
                  111111111_11 | 1___________      -0.216791  30.000
                  111111111_11 | _____1______       0.235044  30.000
                  111111111_11 | ______1_____      -0.236243  30.000
                  1111111_1111 | ____1_______       0.229018  30.000
                  111_11111111 | ________1___      -0.211867  30.000
 -------------------------------------------------------------------
 State  20                      Configuration         Coeff.   <S^2>
 -------------------------------------------------------------------
                  11111111111_ | __1_________      -0.221364  30.000
                  1111111_1111 | ____1_______       0.217567  30.000
                  11111_111111 | 1___________       0.261144  30.000
                  11111_111111 | ______1_____       0.282785  30.000
                  11111_111111 | _________1__       0.304698  30.000
                  11_111111111 | ___________1       0.201111  30.000
 -------------------------------------------------------------------
 State  21                      Configuration         Coeff.   <S^2>
 -------------------------------------------------------------------
                  11111111_111 | _1__________      -0.369196  30.000
                  11111111_111 | ___1________      -0.246184  30.000
                  11111111_111 | ________1___      -0.224751  31.000
                  11111111_111 | __________1_       0.390678  30.000
                  111_11111111 | _1__________       0.366610  30.000
                  111_11111111 | ___1________      -0.235793  31.000
                  111_11111111 | ________1___      -0.273820  30.000
                  111_11111111 | __________1_      -0.416960  30.000
 -------------------------------------------------------------------
 State  22                      Configuration         Coeff.   <S^2>
 -------------------------------------------------------------------
                  11111111111_ | ________1___      -0.204414  30.000
                  11111111111_ | __________1_      -0.246686  30.000
                  11111_111111 | 1___________      -0.234593  30.000
                  11111_111111 | ______1_____      -0.223639  30.000
                  11111_111111 | _________1__      -0.206858  30.000
 -------------------------------------------------------------------
 State  23                      Configuration         Coeff.   <S^2>
 -------------------------------------------------------------------
                  11111111111_ | _____1______      -0.219397  30.000
                  11111111111_ | __________1_       0.219935  30.000
                  1111111111_1 | _________1__      -0.200061  30.000
 -------------------------------------------------------------------
 State  24                      Configuration         Coeff.   <S^2>
 -------------------------------------------------------------------
                  111111111_11 | __1_________      -0.224305  30.000
                  111111111_11 | ____1_______       0.235098  30.000
                  111111111_11 | _______1____      -0.254709  30.000
                  111111111_11 | ___________1       0.355626  30.000
                  11111_111111 | __1_________      -0.263132  30.000
                  11111_111111 | ____1_______       0.259540  30.000
                  11111_111111 | _______1____      -0.304305  30.000
                  11111_111111 | ___________1       0.365795  30.000
 -------------------------------------------------------------------
 State  25                      Configuration         Coeff.   <S^2>
 -------------------------------------------------------------------
                  11111111111_ | _____1______      -0.217841  30.000
                  11111111111_ | _________1__       0.205049  30.000
                  1111111111_1 | __1_________      -0.237145  30.000
                  1111111111_1 | ____1_______       0.290587  30.000
                  1111111111_1 | _______1____      -0.243713  30.000
                  1111111111_1 | ___________1       0.334794  30.000
 -------------------------------------------------------------------
 State  26                      Configuration         Coeff.   <S^2>
 -------------------------------------------------------------------
                  11111111_111 | 1___________      -0.288898  30.000
                  11111111_111 | _____1______       0.295148  30.000
                  11111111_111 | ______1_____      -0.273957  30.000
                  11111111_111 | _________1__      -0.418167  30.000
                  111_11111111 | 1___________       0.242792  30.000
                  111_11111111 | _____1______      -0.265213  30.000
                  111_11111111 | ______1_____       0.250106  30.000
                  111_11111111 | _________1__       0.358782  30.000
 -------------------------------------------------------------------
 State  27                      Configuration         Coeff.   <S^2>
 -------------------------------------------------------------------
                  111111111_11 | ___1________      -0.249857  30.000
                  111111111_11 | ________1___       0.255571  30.000
                  111111111_11 | __________1_       0.223043  30.000
                  11111_111111 | ___________1       0.225564  30.000
                  1111_1111111 | ________1___       0.200662  30.000
                  1111_1111111 | __________1_       0.289558  30.000
 -------------------------------------------------------------------
 State  28                      Configuration         Coeff.   <S^2>
 -------------------------------------------------------------------
                  111111111_11 | _______1____       0.212368  30.000
                  111111111_11 | ___________1      -0.280462  30.000
                  _11111111111 | ___________1      -0.200448  30.000
 -------------------------------------------------------------------
 State  29                      Configuration         Coeff.   <S^2>
 -------------------------------------------------------------------
                  11111111111_ | __________1_       0.207099  30.000
                  1111_1111111 | _________1__       0.206185  30.000
 -------------------------------------------------------------------
 State  30                      Configuration         Coeff.   <S^2>
 -------------------------------------------------------------------
                  1111111111_1 | _________1__      -0.234342  30.000
                  1111111_1111 | __________1_       0.206065  30.000
                  1111_1111111 | _1__________       0.204079  30.000
                  1111_1111111 | ___1________       0.200666  30.000
                  1111_1111111 | __________1_      -0.289723  30.000
 -------------------------------------------------------------------
 State  31                      Configuration         Coeff.   <S^2>
 -------------------------------------------------------------------
                  1111111_1111 | 1___________      -0.287062  30.000
                  1111111_1111 | _____1______       0.379805  30.000
                  1111111_1111 | ______1_____      -0.285439  30.000
                  1111111_1111 | _________1__      -0.327282  30.000
                  11_111111111 | 1___________      -0.230666  30.000
                  11_111111111 | _____1______       0.270364  30.000
                  11_111111111 | ______1_____      -0.218420  30.000
                  11_111111111 | _________1__      -0.279054  30.000
 -------------------------------------------------------------------
 State  32                      Configuration         Coeff.   <S^2>
 -------------------------------------------------------------------
                  11111111_111 | __1_________      -0.259279  30.000
                  11111111_111 | ____1_______       0.293842  30.000
                  11111111_111 | _______1____      -0.259691  30.000
                  11111111_111 | ___________1       0.314608  30.000
                  111_11111111 | __1_________       0.216379  30.000
                  111_11111111 | ____1_______      -0.255212  30.000
                  111_11111111 | _______1____       0.224929  30.000
                  111_11111111 | ___________1      -0.245000  30.000
 -------------------------------------------------------------------
 State  33                      Configuration         Coeff.   <S^2>
 -------------------------------------------------------------------
                  1_1111111111 | 1___________      -0.252581  30.000
                  1_1111111111 | _____1______       0.270169  30.000
                  1_1111111111 | ______1_____      -0.248648  30.000
                  1_1111111111 | _________1__      -0.302068  30.000
 -------------------------------------------------------------------
 State  34                      Configuration         Coeff.   <S^2>
 -------------------------------------------------------------------
                  111111_11111 | ___1________       0.231522  30.000
                  111111_11111 | ________1___      -0.224521  30.000
                  111111_11111 | __________1_      -0.250106  30.000
                  111111_11111 | ___________1       0.224404  30.000
                  _11111111111 | _1__________      -0.206736  30.000
                  _11111111111 | ___1________      -0.237578  30.000
                  _11111111111 | ________1___       0.255702  30.000
                  _11111111111 | __________1_       0.261285  30.000
 -------------------------------------------------------------------
 State  35                      Configuration         Coeff.   <S^2>
 -------------------------------------------------------------------
                  1111111_1111 | _1__________       0.251898  30.000
                  1111111_1111 | ___1________       0.266914  30.000
                  1111111_1111 | ________1___      -0.261113  30.000
                  1111111_1111 | __________1_      -0.309160  30.000
                  11_111111111 | _1__________       0.212551  30.000
                  11_111111111 | ___1________       0.216482  30.000
                  11_111111111 | ________1___      -0.219990  30.000
                  11_111111111 | __________1_      -0.251631  30.000
 -------------------------------------------------------------------
 State  36                      Configuration         Coeff.   <S^2>
 -------------------------------------------------------------------
                  111111_11111 | ___1________      -0.210589  30.000
                  111111_11111 | ________1___       0.203151  30.000
                  _11111111111 | __1_________       0.226980  30.000
                  _11111111111 | ____1_______      -0.204324  30.000
                  _11111111111 | _______1____       0.237728  30.000
                  _11111111111 | ___________1      -0.254698  30.000
 -------------------------------------------------------------------
 State  37                      Configuration         Coeff.   <S^2>
 -------------------------------------------------------------------
                  111111_11111 | _______1____      -0.206424  30.000
                  111111_11111 | ___________1       0.219326  30.000
                  1_1111111111 | __1_________       0.206371  30.000
                  1_1111111111 | ____1_______      -0.246447  30.000
                  1_1111111111 | _______1____       0.211017  30.000
                  1_1111111111 | ___________1      -0.235368  30.000
 -------------------------------------------------------------------
 State  38                      Configuration         Coeff.   <S^2>
 -------------------------------------------------------------------
                  111111_11111 | ___1________      -0.206202  30.000
                  11111_111111 | _1__________       0.227214  30.000
                  11111_111111 | ___1________       0.272877  30.000
                  11111_111111 | ________1___      -0.270333  30.000
                  11111_111111 | __________1_      -0.252453  30.000
                  11_111111111 | _1__________       0.209348  30.000
                  11_111111111 | ___1________       0.214517  30.000
                  11_111111111 | ________1___      -0.221402  30.000
                  11_111111111 | __________1_      -0.255689  30.000
 -------------------------------------------------------------------
 State  39                      Configuration         Coeff.   <S^2>
 -------------------------------------------------------------------
                  1111111111_1 | 1___________       0.210788  30.000
                  1111111111_1 | _____1______      -0.215206  30.000
                  1111111111_1 | ______1_____       0.209201  30.000
                  1111111111_1 | _________1__       0.283608  30.000
                  1111_1111111 | _____1______       0.230460  30.000
                  1111_1111111 | _________1__      -0.213877  30.000
                  11_111111111 | 1___________      -0.203257  30.000
                  11_111111111 | _____1______       0.236387  30.000
                  11_111111111 | _________1__      -0.208017  30.000
                  1_1111111111 | 1___________      -0.232717  30.000
                  1_1111111111 | _____1______       0.225484  30.000
                  1_1111111111 | ______1_____      -0.233223  30.000
                  1_1111111111 | _________1__      -0.272578  30.000
 -------------------------------------------------------------------
 State  40                      Configuration         Coeff.   <S^2>
 -------------------------------------------------------------------
                  11111111111_ | ____1_______      -0.443734  30.000
                  11111111111_ | _______1____      -0.360331  30.000
                  1111111_1111 | __1_________      -0.226139  30.000
                  11_111111111 | ____1_______       0.299705  30.000
                  11_111111111 | _______1____       0.358999  30.000
 -------------------------------------------------------------------
 State  41                      Configuration         Coeff.   <S^2>
 -------------------------------------------------------------------
                  11111111111_ | __1_________      -0.213616  30.000
                  1111111111_1 | _1__________      -0.403216  30.000
                  1111111111_1 | ________1___      -0.273812  30.000
                  11111111_111 | ___1________      -0.232636  30.000
                  1111_1111111 | _______1____       0.286631  30.000
                  111_11111111 | _1__________       0.205178  30.000
                  111_11111111 | ________1___       0.285071  30.000
                  11_111111111 | ___________1       0.214176  30.000
 -------------------------------------------------------------------
 State  42                      Configuration         Coeff.   <S^2>
 -------------------------------------------------------------------
                  11111111111_ | __1_________       0.326557  30.000
                  1111111111_1 | _1__________      -0.324255  30.000
                  1111111111_1 | ________1___      -0.248980  30.000
                  111111111_11 | _____1______       0.256796  30.000
                  11111111_111 | _1__________       0.217409  30.000
                  1111111_1111 | ____1_______       0.236392  30.000
                  111111_11111 | 1___________       0.207671  30.000
                  111_11111111 | _1__________       0.230919  30.000
 -------------------------------------------------------------------
 State  43                      Configuration         Coeff.   <S^2>
 -------------------------------------------------------------------
                  1111111111_1 | ___1________      -0.551244  30.000
                  1111111111_1 | ________1___      -0.416838  30.000
                  11111111_111 | _1__________      -0.275526  30.000
                  1_1111111111 | ___1________       0.359662  30.000
                  1_1111111111 | ________1___       0.395557  30.000
 -------------------------------------------------------------------
 State  44                      Configuration         Coeff.   <S^2>
 -------------------------------------------------------------------
                  11111111111_ | __1_________      -0.372130  30.000
                  11111111111_ | _______1____       0.476730  30.000
                  1111111_1111 | __1_________      -0.237467  30.000
                  11111_111111 | _________1__       0.238206  30.000
                  1111_1111111 | __1_________      -0.252374  30.000
                  1111_1111111 | _______1____       0.290825  30.000
                  11_111111111 | ____1_______      -0.262619  30.000
 -------------------------------------------------------------------
 State  45                      Configuration         Coeff.   <S^2>
 -------------------------------------------------------------------
                  111111111_11 | 1___________       0.371024  30.000
                  111111111_11 | ______1_____      -0.483014  30.000
                  11111_111111 | 1___________       0.244247  30.000
                  11111_111111 | ______1_____      -0.351774  30.000
                  _11111111111 | _____1______      -0.291152  30.000
 -------------------------------------------------------------------
 State  46                      Configuration         Coeff.   <S^2>
 -------------------------------------------------------------------
                  111111111_11 | 1___________      -0.287182  30.000
                  111111111_11 | _____1______      -0.225339  30.000
                  1111111_1111 | ___________1      -0.290346  30.000
                  111111_11111 | _____1______      -0.241483  30.000
                  11111_111111 | 1___________      -0.242035  30.000
                  1111_1111111 | __1_________       0.311667  30.000
                  1111_1111111 | ___________1       0.348525  30.000
 -------------------------------------------------------------------
 State  47                      Configuration         Coeff.   <S^2>
 -------------------------------------------------------------------
                  1111111_1111 | __1_________       0.397334  30.000
                  1111111_1111 | ____1_______       0.296724  30.000
                  1111_1111111 | __1_________      -0.290998  30.000
                  1111_1111111 | _______1____       0.429589  30.000
                  11_111111111 | _______1____       0.417643  30.000
                  11_111111111 | ___________1       0.274540  30.000
 -------------------------------------------------------------------
 State  48                      Configuration         Coeff.   <S^2>
 -------------------------------------------------------------------
                  11111111_111 | _1__________       0.387554  30.000
                  11111111_111 | ___1________      -0.398210  30.000
                  111_11111111 | _1__________      -0.381723  30.000
                  111_11111111 | ________1___      -0.391261  30.000
                  1_1111111111 | ___1________       0.379799  30.000
                  1_1111111111 | ________1___       0.351378  30.000
 -------------------------------------------------------------------
 State  49                      Configuration         Coeff.   <S^2>
 -------------------------------------------------------------------
                  111111_11111 | 1___________       0.326818  30.000
                  111111_11111 | _____1______       0.255354  30.000
                  11111_111111 | 1___________      -0.242196  30.000
                  11111_111111 | ______1_____       0.408412  30.000
                  11_111111111 | ____1_______      -0.206597  30.000
                  _11111111111 | ______1_____      -0.343162  30.000
                  _11111111111 | _________1__       0.237199  30.000
[...]
   697     3430.00485432    31823.02984262        6.00000000      cm-1
   698     3431.45229409    31824.47728240       12.00000000      cm-1
   699     3434.02259670    31827.04758500       20.00000000      cm-1
   700     3435.61534017    31828.64032848        6.00000000      cm-1
   701     3444.31487357    31837.33986187       20.00000000      cm-1
   702     3449.54056293    31842.56555124       12.00000000      cm-1
   703     3450.93510210    31843.96009040        2.00000000      cm-1
   704     3456.20258726    31849.22757557        6.00000000      cm-1
   705     3462.34939726    31855.37438556       12.00000000      cm-1
   706     3474.55909595    31867.58408425       12.00000000      cm-1
   707     3501.67609411    31894.70108242        6.00000000      cm-1
   708     3509.35168262    31902.37667092       20.00000000      cm-1
   709     3510.85476028    31903.87974859        6.00000000      cm-1
   710     3519.22802426    31912.25301256       12.00000000      cm-1
   711     3521.93207044    31914.95705874       20.00000000      cm-1
   712     3531.14985058    31924.17483889       12.00000000      cm-1
   713     3532.92731313    31925.95230143        2.00000000      cm-1
   714     3535.44467943    31928.46966774        6.00000000      cm-1
   715     3539.66589177    31932.69088008        6.00000000      cm-1
   716     3543.34685503    31936.37184334        0.00000000      cm-1
   717     3548.40669520    31941.43168351       12.00000000      cm-1
   718     3551.23315141    31944.25813972        6.00000000      cm-1
   719     3557.93362048    31950.95860878        2.00000000      cm-1
   720     3566.17859605    31959.20358435       12.00000000      cm-1
   721     3582.79945725    31975.82444555        6.00000000      cm-1
   722     3586.62183743    31979.64682573       20.00000000      cm-1
   723     3586.73386945    31979.75885776       12.00000000      cm-1
   724     3594.84740936    31987.87239766       12.00000000      cm-1
   725     3595.49549269    31988.52048100        6.00000000      cm-1
   726     3599.16664571    31992.19163401        6.00000000      cm-1
   727     3600.38143990    31993.40642821        2.00000000      cm-1
   728     3611.91666818    32004.94165648        6.00000000      cm-1
   729     3613.87791702    32006.90290533       12.00000000      cm-1
   730     3620.50828554    32013.53327384        2.00000000      cm-1
   731     3620.87434054    32013.89932884       -0.00000000      cm-1
   732     3633.14580079    32026.17078910        6.00000000      cm-1
   733     3635.51110630    32028.53609460        2.00000000      cm-1
   734     3638.90031913    32031.92530743       20.00000000      cm-1
   735     3639.82996157    32032.85494988       -0.00000000      cm-1
   736     3650.52500102    32043.54998933       20.00000000      cm-1
   737     3651.01323340    32044.03822170       12.00000000      cm-1
   738     3658.32050603    32051.34549434       20.00000000      cm-1
   739     3676.46757585    32069.49256415        6.00000000      cm-1
   740     3690.19427131    32083.21925961       12.00000000      cm-1
   741     3713.27276486    32106.29775316       12.00000000      cm-1
   742     3721.17417979    32114.19916809       20.00000000      cm-1
   743     3725.97924560    32119.00423391        6.00000000      cm-1
   744     3761.17280867    32154.19779697       12.00000000      cm-1
   745     3786.72572427    32179.75071258        6.00000000      cm-1
   746     3788.79852700    32181.82351530       12.00000000      cm-1
   747     3789.69400266    32182.71899097       20.00000000      cm-1
   748     3805.28015130    32198.30513961       20.00000000      cm-1
   749     3815.19011434    32208.21510265       20.00000000      cm-1
   750     3836.18503853    32229.21002684       20.00000000      cm-1
   751     3886.39231929    32279.41730760       20.00000000      cm-1
   752     3903.90495742    32296.92994572       12.00000000      cm-1
   753     3907.09588537    32300.12087367        6.00000000      cm-1
   754     3921.25005899    32314.27504729       20.00000000      cm-1
   755     3980.25970001    32373.28468832       20.00000000      cm-1
   756     3994.99178040    32388.01676870       20.00000000      cm-1
   757     4022.31530958    32415.34029788       20.00000000      cm-1
   758     8287.79655352    36680.82154182       -0.00000000      cm-1
   759     8394.61790481    36787.64289311        2.00000000      cm-1
   760     8480.15481610    36873.17980440       -0.00000000      cm-1
   761     8539.17014069    36932.19512899        0.00000000      cm-1
   762     8590.50083073    36983.52581904        2.00000000      cm-1
   763     8594.85466079    36987.87964910        2.00000000      cm-1
   764     8602.60319471    36995.62818301        6.00000000      cm-1
   765     8673.23412677    37066.25911508        0.00000000      cm-1
   766     8704.67538998    37097.70037829        6.00000000      cm-1
   767     8779.18103388    37172.20602219        2.00000000      cm-1
   768     8806.06399859    37199.08898689        6.00000000      cm-1
   769     8865.55831786    37258.58330616       12.00000000      cm-1
   770     8901.94867748    37294.97366578       12.00000000      cm-1
   771     8903.18200728    37296.20699558       -0.00000000      cm-1
   772     8986.46372803    37379.48871633        6.00000000      cm-1
   773     9014.18907911    37407.21406741        2.00000000      cm-1
   774     9074.00861223    37467.03360053       20.00000000      cm-1
   775     9117.64232117    37510.66730948       12.00000000      cm-1
   776     9167.51608776    37560.54107607        0.00000000      cm-1
   777     9228.58689336    37621.61188166        2.00000000      cm-1
   778     9230.59337502    37623.61836333        6.00000000      cm-1
   779     9279.94707306    37672.97206137       20.00000000      cm-1
   780     9286.77510839    37679.80009669       12.00000000      cm-1
   781     9349.16234537    37742.18733368        6.00000000      cm-1
   782     9513.58656506    37906.61155337       20.00000000      cm-1
   783     9526.30669045    37919.33167876       12.00000000      cm-1
   784     9542.44442986    37935.46941816       12.00000000      cm-1
   785     9669.58031488    38062.60530319       20.00000000      cm-1
   786     9756.05925337    38149.08424168       20.00000000      cm-1
   787     9937.37511320    38330.40010150       20.00000000      cm-1
   788    14151.05670536    42544.08169366        2.00000000      cm-1
   789    14226.59174315    42619.61673146        2.00000000      cm-1
   790    14345.81526716    42738.84025546        6.00000000      cm-1
   791    14373.31138223    42766.33637053        2.00000000      cm-1
   792    14391.23042059    42784.25540889        0.00000000      cm-1
   793    14392.56485192    42785.58984022        2.00000000      cm-1
   794    14416.12056277    42809.14555108       -0.00000000      cm-1
   795    14442.95766031    42835.98264861        6.00000000      cm-1
   796    14466.91674788    42859.94173618        2.00000000      cm-1
   797    14486.63112026    42879.65610856        2.00000000      cm-1
   798    14503.82142364    42896.84641195        2.00000000      cm-1
   799    14517.52719954    42910.55218785        6.00000000      cm-1
   800    14523.08894199    42916.11393030       -0.00000000      cm-1
   801    14544.97754701    42938.00253532        2.00000000      cm-1
   802    14562.93415009    42955.95913840       12.00000000      cm-1
   803    14569.01756907    42962.04255738        2.00000000      cm-1
   804    14573.54790681    42966.57289512        6.00000000      cm-1
   805    14584.33977936    42977.36476766        0.00000000      cm-1
   806    14590.37794867    42983.40293698        6.00000000      cm-1
   807    14626.06793737    43019.09292567        2.00000000      cm-1
   808    14635.49089378    43028.51588208       12.00000000      cm-1
   809    14644.14640317    43037.17139147        6.00000000      cm-1
   810    14660.95243411    43053.97742242        2.00000000      cm-1
   811    14683.70720881    43076.73219711        0.00000000      cm-1
   812    14687.45828082    43080.48326912        6.00000000      cm-1
   813    14725.71698389    43118.74197220        2.00000000      cm-1
   814    14743.21080469    43136.23579299        6.00000000      cm-1
   815    14749.63442921    43142.65941752       12.00000000      cm-1
   816    14759.25673619    43152.28172449        6.00000000      cm-1
   817    14776.57919594    43169.60418424        2.00000000      cm-1
   818    14779.51473110    43172.53971940       12.00000000      cm-1
   819    14800.08363579    43193.10862409        6.00000000      cm-1
   820    14814.59962135    43207.62460966        2.00000000      cm-1
   821    14823.56449334    43216.58948164       12.00000000      cm-1
   822    14857.55181306    43250.57680136        0.00000000      cm-1
   823    14866.38151758    43259.40650588        6.00000000      cm-1
   824    14874.93286516    43267.95785347        2.00000000      cm-1
   825    14890.25933976    43283.28432806       12.00000000      cm-1
   826    14892.70872150    43285.73370981        2.00000000      cm-1
   827    14899.69968714    43292.72467544        6.00000000      cm-1
   828    14921.43910868    43314.46409698        0.00000000      cm-1
   829    14933.96944435    43326.99443265       12.00000000      cm-1
   830    14953.12800658    43346.15299489        6.00000000      cm-1
   831    14962.87114133    43355.89612963        2.00000000      cm-1
   832    14967.42662988    43360.45161819       20.00000000      cm-1
   833    14967.98301440    43361.00800271        6.00000000      cm-1
   834    14987.16857253    43380.19356083        2.00000000      cm-1
   835    15021.16029739    43414.18528570        2.00000000      cm-1
   836    15040.97971430    43434.00470261        2.00000000      cm-1
   837    15046.83976869    43439.86475699        6.00000000      cm-1
   838    15054.62083812    43447.64582642       12.00000000      cm-1
   839    15056.30002403    43449.32501233       20.00000000      cm-1
   840    15102.24453014    43495.26951845       12.00000000      cm-1
   841    15103.10641565    43496.13140396        6.00000000      cm-1
   842    15107.97432778    43500.99931608        0.00000000      cm-1
   843    15132.20600613    43525.23099443       12.00000000      cm-1
   844    15139.11388090    43532.13886921        2.00000000      cm-1
   845    15141.03992245    43534.06491075       12.00000000      cm-1
   846    15152.07356198    43545.09855028        6.00000000      cm-1
   847    15155.54909102    43548.57407932       12.00000000      cm-1
   848    15171.65419092    43564.67917922        6.00000000      cm-1
   849    15176.12704514    43569.15203345       12.00000000      cm-1
   850    15203.50305109    43596.52803939        6.00000000      cm-1
   851    15216.68954138    43609.71452968        6.00000000      cm-1
   852    15247.94457483    43640.96956313        2.00000000      cm-1
   853    15252.61964470    43645.64463301       30.00000000      cm-1
   854    15265.95787049    43658.98285879       12.00000000      cm-1
   855    15298.63096391    43691.65595221       20.00000000      cm-1
   856    15314.76685089    43707.79183919        2.00000000      cm-1
   857    15320.75362636    43713.77861467       12.00000000      cm-1
   858    15352.36809628    43745.39308459       -0.00000000      cm-1
   859    15361.86740220    43754.89239051       12.00000000      cm-1
   860    15371.77709891    43764.80208721        6.00000000      cm-1
   861    15371.78553282    43764.81052112       20.00000000      cm-1
   862    15380.50224188    43773.52723018        2.00000000      cm-1
   863    15406.44911988    43799.47410819        2.00000000      cm-1
   864    15412.77923372    43805.80422203       20.00000000      cm-1
   865    15423.67539131    43816.70037962       12.00000000      cm-1
   866    15448.96056682    43841.98555512        6.00000000      cm-1
   867    15458.22174342    43851.24673173        6.00000000      cm-1
   868    15459.30043120    43852.32541951        2.00000000      cm-1
   869    15467.32712717    43860.35211547       12.00000000      cm-1
   870    15475.46143207    43868.48642038       20.00000000      cm-1
   871    15484.27812278    43877.30311109       12.00000000      cm-1
   872    15519.96721879    43912.99220709        2.00000000      cm-1
   873    15522.58212266    43915.60711097       12.00000000      cm-1
   874    15559.45278509    43952.47777340       20.00000000      cm-1
   875    15571.16331486    43964.18830316        6.00000000      cm-1
   876    15572.24368605    43965.26867435        6.00000000      cm-1
   877    15607.36901483    44000.39400313       12.00000000      cm-1
   878    15637.77055401    44030.79554231       20.00000000      cm-1
   879    15647.01700526    44040.04199356        6.00000000      cm-1
   880    15673.55929477    44066.58428308       20.00000000      cm-1
   881    15681.52654270    44074.55153100       20.00000000      cm-1
   882    15690.57848906    44083.60347736       12.00000000      cm-1
   883    15691.86071445    44084.88570276        6.00000000      cm-1
   884    15702.65987093    44095.68485923       30.00000000      cm-1
   885    15733.23130820    44126.25629650       20.00000000      cm-1
   886    15738.49700112    44131.52198942       12.00000000      cm-1
   887    15754.43741123    44147.46239953       20.00000000      cm-1
   888    15760.06851809    44153.09350640       12.00000000      cm-1
   889    15803.52159894    44196.54658725       12.00000000      cm-1
   890    15847.67690190    44240.70189021       20.00000000      cm-1
   891    15871.21074209    44264.23573040       20.00000000      cm-1
   892    15893.83603152    44286.86101983       30.00000000      cm-1
   893    15915.00713489    44308.03212319       12.00000000      cm-1
   894    15925.67807966    44318.70306796       20.00000000      cm-1
   895    15960.17895315    44353.20394145       20.00000000      cm-1
   896    16028.92721665    44421.95220495       12.00000000      cm-1
   897    16046.02904491    44439.05403321       20.00000000      cm-1
   898    16067.64897857    44460.67396688       20.00000000      cm-1
   899    16138.51278751    44531.53777582       30.00000000      cm-1
   900    16174.58168936    44567.60667766       30.00000000      cm-1
   901    16225.45156629    44618.47655459       30.00000000      cm-1
   902    16320.02601460    44713.05100290       30.00000000      cm-1
   903    16328.80426318    44721.82925149       30.00000000      cm-1
   904    16349.12850902    44742.15349732       30.00000000      cm-1
   905    26834.95480427    55227.97979257        2.00000000      cm-1
   906    26857.24782061    55250.27280891        6.00000000      cm-1
   907    26865.79106589    55258.81605420        0.00000000      cm-1
   908    26965.88245945    55358.90744776        2.00000000      cm-1
   909    27044.32033360    55437.34532191        6.00000000      cm-1
   910    27050.13254497    55443.15753327        2.00000000      cm-1
   911    27165.58118266    55558.60617097        6.00000000      cm-1
   912    27181.06276630    55574.08775460       12.00000000      cm-1
   913    27237.51210117    55630.53708947        6.00000000      cm-1
   914    27284.16741745    55677.19240575        6.00000000      cm-1
   915    27353.68619583    55746.71118413       12.00000000      cm-1
   916    27468.85290327    55861.87789158       12.00000000      cm-1
   917    27548.85042867    55941.87541697       12.00000000      cm-1
   918    27598.74504156    55991.77002986       20.00000000      cm-1
   919    27757.80085656    56150.82584486       20.00000000      cm-1
   920    27871.26544363    56264.29043194       20.00000000      cm-1
   921    28100.63123826    56493.65622657       30.00000000      cm-1
   922    28248.52568276    56641.55067107       30.00000000      cm-1
   923    28676.39675688    57069.42174518       42.00000000      cm-1
 Analysis of SCF Wavefunction

 --------------------------------------------------------------

                    Orbital Energies (a.u.)
 --------------------------------------------------------------

 Alpha MOs
 -- Occupied --
 -0.914  -0.914  -0.515  -0.515  -0.516  -0.517  -0.516  -0.517
 -0.515  -0.515  -0.515  -0.518  -0.516  -0.519
 -- Virtual --
  0.972   1.271   0.814   1.022   1.131   0.994   1.000   1.036
  1.055   1.046   1.035   1.038   1.083   0.984

 Beta MOs
 -- Occupied --
 -0.914  -0.914
 -- Virtual --
  0.148   0.150   0.147   0.148   0.147   0.151   0.148   0.148
  0.149   0.150   0.147   0.151   1.138   1.318   1.000   1.184
  1.228   1.160   1.165   1.203   1.192   1.190   1.177   1.209
  1.220   1.146
 --------------------------------------------------------------

          Ground-State Mulliken Net Atomic Charges

     Atom                 Charge (a.u.)
  ----------------------------------------
      1 H                     0.000046
      2 H                     0.000055
      3 H                    -0.000018
      4 H                    -0.000003
      5 H                    -0.000040
      6 H                     0.000041
      7 H                     0.000035
      8 H                    -0.000060
      9 H                     0.000073
     10 H                     0.000060
     11 H                    -0.000098
     12 H                    -0.000090
     13 He                    0.000000
     14 He                    0.000000
  ----------------------------------------
  Sum of atomic charges =    -0.000000

 -----------------------------------------------------------------
                    Cartesian Multipole Moments
 -----------------------------------------------------------------
    Charge (ESU x 10^10)
                -0.0000
    Dipole Moment (Debye)
         X       0.0002      Y      -0.0005      Z       0.0004
       Tot       0.0007
    Quadrupole Moments (Debye-Ang)
        XX     -19.7003     XY       0.0215     YY     -19.6795
        XZ      -0.0018     YZ      -0.0405     ZZ     -19.5104
    Octopole Moments (Debye-Ang^2)
       XXX     -19.5718    XXY     -31.5310    XYY      -4.8816
       YYY     -98.1850    XXZ     -22.8788    XYZ      -0.0214
       YYZ     -23.9049    XZZ      -4.1018    YZZ     -31.5980
       ZZZ     -70.7123
    Hexadecapole Moments (Debye-Ang^3)
      XXXX   -1643.4781   XXXY      -7.6010   XXYY    -547.8807
      XYYY      -7.2610   YYYY   -1634.0588   XXXZ       3.4497
      XXYZ    -213.5023   XYYZ       0.0904   YYYZ    -648.3617
      XXZZ    -491.0220   XYZZ      -2.2563   YYZZ    -497.5042
      XZZZ       4.4662   YZZZ    -643.9119   ZZZZ   -1318.2381
 -----------------------------------------------------------------
 JobOver = TRUE
Archival summary:
1\1\sinatra\SP\ROProcedureUnspecified\6-31G*\e212()\nmayhall\MonMar2016:10:592017MonMar2016:10:592017\0\\#,ROProcedureUnspecified,6-31G*,\\0,13\H\H,1,1.81065\H,1,1.81086,2,60.0452\H,2,1.81131,1,60.0237,3,-70.5123,0\H,1,2.6459,2,127.132,3,-28.852,0\H,5,1.81039,1,161.062,2,-128.385,0\H,5,1.81121,1,114.496,2,162.928,0\H,7,1.8112,5,60.0005,1,89.002,0\H,1,2.69731,2,121.355,3,139.819,0\H,9,1.8111,1,129.028,2,-176.133,0\H,10,1.8108,9,60.0291,1,-15.5086,0\H,9,1.81133,1,105.539,2,120.091,0\He,2,14.6354,1,126.128,3,67.0984,0\He,2,14.8639,1,126.242,3,-178.626,0\\HF=-11.4675748\\@

 Total job time:  0.51s(wall), 0.51s(cpu) 
 Mon Mar 20 16:10:59 2017

        *************************************************************
        *                                                           *
        *  Thank you very much for using Q-Chem.  Have a nice day.  *
        *                                                           *
        *************************************************************


*** MISSION COMPLETED -- STARFLEET OUT ***

