Jobname.Temp
SP        RO                            6-31G(d)            
Number of atoms                            I               14
Charge                                     I                0
Multiplicity                               I               13
Number of electrons                        I               16
Number of alpha electrons                  I               14
Number of beta electrons                   I                2
Atomic numbers                             I   N=          14
           1           1           1           1           1           1
           1           1           1           1           1           1
           2           2
Current cartesian coordinates              R   N=          42
 -1.39563833E+00 -1.02168043E+00  1.62062912E-01 -4.37169242E+00 -1.92275854E+00
 -1.26643776E+00 -3.96052581E+00  1.23869658E+00 -2.16562614E-02 -4.17712622E+00
 -1.42555270E+00  2.11639877E+00  2.79063416E+00  5.99426796E+00  1.85722284E-01
  3.18418852E-01  7.10578597E+00  2.27798925E+00  3.45574216E-01  3.84521472E+00
  1.24094535E+00 -4.09806007E-01  6.34056027E+00 -9.77800989E-01  6.59230959E+00
 -1.65451191E+00 -1.14970937E-01  4.33973715E+00  9.17991157E-01 -3.60937690E-03
  3.66531279E+00 -2.01588424E+00  1.62501329E+00  3.62048849E+00 -1.90796198E+00
 -1.79565556E+00  1.88972612E+01  1.88972612E+01  1.88972612E+01 -1.88972612E+01
  1.88972612E+01  1.88972612E+01
Nuclear charges                            R   N=          14
  1.00000000E+00  1.00000000E+00  1.00000000E+00  1.00000000E+00  1.00000000E+00
  1.00000000E+00  1.00000000E+00  1.00000000E+00  1.00000000E+00  1.00000000E+00
  1.00000000E+00  1.00000000E+00  2.00000000E+00  2.00000000E+00
Number of basis functions                  I               28
Number of contracted shells                I               28
Number of primitive shells                 I               56
Highest angular momentum                   I                0
Largest degree of contraction              I                3
Shell types                                I   N=          28
           0           0           0           0           0           0
           0           0           0           0           0           0
           0           0           0           0           0           0
           0           0           0           0           0           0
           0           0           0           0
Number of primitives per shell             I   N=          28
           3           1           3           1           3           1
           3           1           3           1           3           1
           3           1           3           1           3           1
           3           1           3           1           3           1
           3           1           3           1
Shell to atom map                          I   N=          28
           1           1           2           2           3           3
           4           4           5           5           6           6
           7           7           8           8           9           9
          10          10          11          11          12          12
          13          13          14          14
Primitive exponents                        R   N=          56
  1.87311370E+01  2.82539370E+00  6.40121700E-01  1.61277800E-01  1.87311370E+01
  2.82539370E+00  6.40121700E-01  1.61277800E-01  1.87311370E+01  2.82539370E+00
  6.40121700E-01  1.61277800E-01  1.87311370E+01  2.82539370E+00  6.40121700E-01
  1.61277800E-01  1.87311370E+01  2.82539370E+00  6.40121700E-01  1.61277800E-01
  1.87311370E+01  2.82539370E+00  6.40121700E-01  1.61277800E-01  1.87311370E+01
  2.82539370E+00  6.40121700E-01  1.61277800E-01  1.87311370E+01  2.82539370E+00
  6.40121700E-01  1.61277800E-01  1.87311370E+01  2.82539370E+00  6.40121700E-01
  1.61277800E-01  1.87311370E+01  2.82539370E+00  6.40121700E-01  1.61277800E-01
  1.87311370E+01  2.82539370E+00  6.40121700E-01  1.61277800E-01  1.87311370E+01
  2.82539370E+00  6.40121700E-01  1.61277800E-01  3.84216340E+01  5.77803000E+00
  1.24177400E+00  2.97964000E-01  3.84216340E+01  5.77803000E+00  1.24177400E+00
  2.97964000E-01
Contraction coefficients                   R   N=          56
  3.34945995E-02  2.34726947E-01  8.13757318E-01  1.00000000E+00  3.34945995E-02
  2.34726947E-01  8.13757318E-01  1.00000000E+00  3.34945995E-02  2.34726947E-01
  8.13757318E-01  1.00000000E+00  3.34945995E-02  2.34726947E-01  8.13757318E-01
  1.00000000E+00  3.34945995E-02  2.34726947E-01  8.13757318E-01  1.00000000E+00
  3.34945995E-02  2.34726947E-01  8.13757318E-01  1.00000000E+00  3.34945995E-02
  2.34726947E-01  8.13757318E-01  1.00000000E+00  3.34945995E-02  2.34726947E-01
  8.13757318E-01  1.00000000E+00  3.34945995E-02  2.34726947E-01  8.13757318E-01
  1.00000000E+00  3.34945995E-02  2.34726947E-01  8.13757318E-01  1.00000000E+00
  3.34945995E-02  2.34726947E-01  8.13757318E-01  1.00000000E+00  3.34945995E-02
  2.34726947E-01  8.13757318E-01  1.00000000E+00  4.01397393E-02  2.61246097E-01
  7.93184625E-01  1.00000000E+00  4.01397393E-02  2.61246097E-01  7.93184625E-01
  1.00000000E+00
Coordinates of each shell                  R   N=          84
 -1.39563833E+00 -1.02168043E+00  1.62062912E-01 -1.39563833E+00 -1.02168043E+00
  1.62062912E-01 -4.37169242E+00 -1.92275854E+00 -1.26643776E+00 -4.37169242E+00
 -1.92275854E+00 -1.26643776E+00 -3.96052581E+00  1.23869658E+00 -2.16562614E-02
 -3.96052581E+00  1.23869658E+00 -2.16562614E-02 -4.17712622E+00 -1.42555270E+00
  2.11639877E+00 -4.17712622E+00 -1.42555270E+00  2.11639877E+00  2.79063416E+00
  5.99426796E+00  1.85722284E-01  2.79063416E+00  5.99426796E+00  1.85722284E-01
  3.18418852E-01  7.10578597E+00  2.27798925E+00  3.18418852E-01  7.10578597E+00
  2.27798925E+00  3.45574216E-01  3.84521472E+00  1.24094535E+00  3.45574216E-01
  3.84521472E+00  1.24094535E+00 -4.09806007E-01  6.34056027E+00 -9.77800989E-01
 -4.09806007E-01  6.34056027E+00 -9.77800989E-01  6.59230959E+00 -1.65451191E+00
 -1.14970937E-01  6.59230959E+00 -1.65451191E+00 -1.14970937E-01  4.33973715E+00
  9.17991157E-01 -3.60937690E-03  4.33973715E+00  9.17991157E-01 -3.60937690E-03
  3.66531279E+00 -2.01588424E+00  1.62501329E+00  3.66531279E+00 -2.01588424E+00
  1.62501329E+00  3.62048849E+00 -1.90796198E+00 -1.79565556E+00  3.62048849E+00
 -1.90796198E+00 -1.79565556E+00  1.88972612E+01  1.88972612E+01  1.88972612E+01
  1.88972612E+01  1.88972612E+01  1.88972612E+01 -1.88972612E+01  1.88972612E+01
  1.88972612E+01 -1.88972612E+01  1.88972612E+01  1.88972612E+01
SCF Energy                                 R     -1.146851351141859E+01
Number of independent functions            I               28
Alpha MO coefficients                      R   N=         784
  1.47953739E-21 -2.73265206E-21 -6.58195391E-21  1.06323830E-20 -1.85056660E-21
 -1.05700849E-21  1.43900036E-21 -8.56479649E-22 -2.80135732E-21  6.26724647E-21
  1.13608854E-21 -1.30068659E-21  1.03931658E-21 -2.88040774E-21 -1.08932269E-21
 -1.83676243E-21  3.69086254E-21 -5.97926335E-21 -1.84141540E-21  1.61227865E-21
 -8.69288858E-22  4.96145524E-21 -1.17181459E-21  1.19625692E-21 -5.92081261E-01
 -5.13586011E-01  4.21651621E-21 -4.35384338E-21 -2.21688218E-16 -1.05402432E-16
  1.05625486E-16 -2.54294746E-18  1.02449189E-16 -3.27718686E-16  1.32965061E-16
 -6.40118545E-17 -6.63037700E-17 -2.36240804E-16 -3.95963591E-17 -3.09141748E-16
 -9.82372064E-17 -3.62688567E-16 -1.61651204E-16  2.21218814E-16  3.81533543E-16
  9.37862605E-18  9.93274117E-17 -1.11144050E-16 -2.89961301E-17  1.02620827E-16
 -1.03438354E-16  2.82571627E-17  5.04340971E-17 -5.20631891E-17 -5.92081261E-01
 -5.13586011E-01 -1.71117180E-02 -9.04216895E-02  4.43718136E-01  7.24304723E-01
 -1.67660728E-02 -9.01566159E-02 -1.59446209E-02 -8.97402370E-02 -1.16937394E-03
 -4.66298637E-04 -7.74118822E-04 -6.90603743E-04  6.21765053E-03  5.08885053E-03
  9.93244124E-04 -4.93867354E-04 -8.49860310E-04 -6.53090680E-04  8.13180947E-04
 -1.18436437E-04  2.46400105E-03  1.92785755E-03  5.44271972E-04  2.04952107E-03
  1.13243216E-17  9.82299939E-18  4.46206957E-17  3.87051011E-17 -7.21825814E-03
 -4.20676275E-03  7.02931555E-04  5.56095139E-04  1.10492038E-03  3.79455573E-04
  7.33840166E-04  4.99534709E-04 -2.23106294E-03 -2.18509338E-03  1.05277685E-03
  6.26131966E-04 -4.15268941E-03 -2.81308427E-03  5.18077033E-04  8.59652884E-04
 -4.43829326E-01 -7.24153245E-01  1.70312637E-02  9.05040217E-02  1.67716645E-02
  8.96908574E-02  1.66120671E-02  8.98244665E-02  5.96195565E-17  5.17154840E-17
  1.34491613E-16  1.16661370E-16  2.98692601E-03  2.04816394E-03 -9.02442585E-04
 -6.91135759E-04  2.21778816E-03  2.88758089E-03 -3.92663459E-04 -7.03067966E-04
 -1.66127719E-02 -8.98536238E-02  4.43673067E-01  7.24411092E-01 -1.74264696E-02
 -9.06642921E-02 -1.59798052E-02 -9.00130097E-02 -1.08821903E-03 -5.19340054E-04
  5.69482572E-03  5.50404013E-03  2.86831126E-05 -6.66594168E-04 -2.99230852E-04
 -8.83973354E-04  6.35505630E-17  5.51253394E-17  1.32911434E-16  1.15290683E-16
 -8.20464812E-03 -1.71043706E-02 -4.10227872E-04  3.02993327E-03  6.93956943E-04
  2.46722085E-03  1.67869598E-03  2.12487160E-03  1.90258658E-03  2.31624646E-03
 -4.80177391E-04 -9.19361496E-04  1.46384836E-03  3.03310641E-03 -6.45845519E-04
 -7.02054315E-04 -1.61896293E-02 -8.97469664E-02 -1.62833877E-02 -9.04345432E-02
 -1.53167077E-02 -8.98581449E-02  4.43832395E-01  7.24945764E-01 -3.32476869E-17
 -2.88398704E-17  1.60731883E-16  1.39422833E-16 -1.92970011E-03 -2.40804937E-03
  1.20767682E-03  5.28974340E-04 -4.52879672E-03 -2.51016914E-03  3.07297477E-04
  8.15928216E-04 -4.44370056E-01 -7.24703784E-01  1.61895826E-02  8.96875178E-02
  1.57073051E-02  8.99273430E-02  1.63348672E-02  8.98506751E-02 -1.08229325E-03
 -3.05165652E-03  1.01644879E-02  2.01905987E-02 -1.56953377E-03 -2.88735030E-03
 -9.67196724E-04 -2.87667104E-03  1.51787141E-17  1.31663928E-17  6.73542644E-17
  5.84247640E-17  1.55194082E-02  8.95908224E-02  1.62014627E-02  8.99711412E-02
 -4.44338529E-01 -7.25252124E-01  1.59684744E-02  9.02539062E-02 -2.72426743E-03
 -3.87353739E-03 -5.23925900E-04 -4.49627544E-03  9.67496593E-03  2.38457820E-02
  5.81550085E-03  1.29996543E-03  1.12754510E-03  6.32250150E-04 -7.75697284E-04
 -1.10434710E-03 -2.53374067E-03 -1.71451355E-03 -1.77074093E-03 -1.52337005E-03
  6.47863438E-19  5.61972263E-19 -1.10374522E-16 -9.57416055E-17 -1.66890877E-02
 -9.04074164E-02 -1.59103533E-02 -8.97692211E-02 -1.64158210E-02 -9.01936858E-02
  4.43449877E-01  7.24474940E-01 -5.15025579E-04 -5.82536330E-04 -4.98305540E-04
 -5.30236198E-04  1.94479624E-03  4.66747603E-03  1.74178729E-03 -6.47992016E-04
 -8.71674686E-04 -5.85111192E-04  9.80536673E-04 -2.56653682E-04  3.27529091E-04
  2.58158240E-03  2.64608596E-03  1.35271009E-03 -2.36826247E-17 -2.05428968E-17
  9.32812289E-17  8.09144577E-17 -9.01869149E-04 -3.28577003E-03 -2.21677207E-04
  4.82828825E-05  4.82431036E-03  2.52349326E-03 -1.20042418E-03  4.28290950E-04
  1.66379416E-02  8.99756939E-02  1.58714782E-02  9.00750897E-02  1.64641877E-02
  9.04200753E-02 -4.43545639E-01 -7.24491978E-01  7.06915402E-04  6.24841926E-04
 -3.59830227E-03 -5.42525121E-03 -5.04960576E-04  9.39012210E-04  5.95730857E-04
  6.33512100E-04  2.20461953E-17  1.91234166E-17 -2.15911206E-18 -1.87286747E-18
  8.72261752E-03  2.02579801E-02 -1.47020839E-03 -2.78468813E-03 -1.42645748E-03
 -2.60557920E-03  6.59567355E-04 -3.57215718E-03 -2.35673333E-03 -2.47347415E-03
  3.01709295E-04  5.98780133E-04  1.59935869E-03 -1.73233004E-03 -3.05165183E-04
  9.14498196E-04  1.62921854E-02  8.95423708E-02  1.59292155E-02  9.05129535E-02
 -4.43942158E-01 -7.25077689E-01  1.52745802E-02  8.99061741E-02  1.65990785E-17
  1.43984506E-17  1.62479619E-17  1.40938862E-17  1.05626995E-02  1.95607501E-02
 -3.82363340E-03 -6.98920300E-03  1.00296973E-02  2.29768886E-02  1.80039125E-04
 -6.65780954E-03  1.50047676E-02  8.97216389E-02  1.62264248E-02  9.01335424E-02
 -4.46143984E-01 -7.27105607E-01  1.55566082E-02  9.03863336E-02 -2.57617996E-03
 -3.98017413E-03  1.02557555E-02  2.75106302E-02  2.72048483E-03 -2.83271716E-03
 -1.33657264E-04 -4.21300901E-03  4.70079578E-19  4.07756665E-19 -7.95706252E-17
 -6.90215392E-17  4.45677781E-01  7.25678116E-01 -1.62393535E-02 -9.00542307E-02
 -1.52099432E-02 -8.93361944E-02 -1.59123115E-02 -9.02795893E-02  7.43836901E-04
  3.36149597E-03  1.86888046E-03  2.82082742E-03 -9.58015698E-03 -2.17304242E-02
  4.50282692E-04  3.48112437E-03  4.72169264E-03  6.03561991E-03 -4.14562895E-03
 -7.45757766E-04 -9.70722772E-03 -1.73266112E-02 -9.27921929E-03 -1.43058733E-02
 -3.37660342E-17 -2.92894994E-17  3.43390336E-17  2.97865318E-17  2.19625912E-03
  3.44405286E-03 -4.60241978E-04 -2.84689426E-04 -3.23378720E-04 -1.72219052E-03
 -6.08970232E-04 -2.38208385E-04  1.10777897E-02  1.79789730E-02 -3.36725947E-03
 -7.24904603E-03  1.11022641E-02  2.61614928E-02 -1.41011958E-03 -7.14064413E-03
  1.61956987E-02  9.00908868E-02 -4.45490280E-01 -7.26070922E-01  1.56648112E-02
  9.02499453E-02  1.59330897E-02  9.00350333E-02  6.93074121E-19  6.01191463E-19
 -3.43845442E-17 -2.98260088E-17 -6.62243793E-01  6.61308937E-01  2.92108636E-01
 -3.61086792E-01 -9.63090981E-02  4.34096075E-02  1.45758230E-01 -1.97446428E-01
 -3.68882770E-02 -5.24945672E-03  2.65259819E-01 -3.27885684E-01 -6.31759845E-01
  6.23574471E-01  1.13298485E-01 -1.57733921E-01  4.35500192E-01 -5.36351319E-01
 -4.10395799E-01  3.67609557E-01 -2.95915945E-01  2.54989347E-01 -1.71983771E-01
  1.21136962E-01 -3.45589510E-16  3.56588392E-16  3.26312295E-16 -3.54981436E-16
 -1.66726863E-01  1.51052379E-01  2.00815121E-01 -2.51822420E-01 -3.61029954E-01
  3.83761870E-01  1.50013451E-01 -1.93564116E-01  7.70536070E-01 -8.46319160E-01
 -1.91397009E-01  2.27972668E-01 -9.49672032E-02  1.30172193E-01 -3.86132703E-01
  4.49202298E-01 -6.01805203E-02  7.40671416E-02  6.34095629E-01 -6.96668321E-01
 -2.75424027E-01  3.14374660E-01 -2.50370206E-01  2.86823696E-01 -1.33268396E-15
  1.36927497E-15  4.39107682E-17 -3.20850548E-17 -3.99946167E-01  4.64591335E-01
 -2.14608807E-01  2.59100150E-01  7.54558057E-01 -8.43127104E-01 -5.55304393E-02
  7.54491672E-02 -1.83980576E-02  7.48104764E-02 -3.46457680E-01  4.38727571E-01
  3.55381740E-01 -3.32568076E-01  3.35122171E-01 -3.43110766E-01  2.70597133E-01
 -3.32218859E-01  2.98060702E-01 -3.53883754E-01 -3.27065996E-01  3.41338740E-01
 -3.98674145E-01  4.25859552E-01 -7.18236182E-16  7.38399758E-16  5.46954892E-16
 -8.72376936E-16 -9.08687947E-02  1.13377023E-01 -4.74636799E-01  5.57984857E-01
 -8.67534251E-02  1.09564159E-01  6.60783181E-01 -7.79019052E-01 -1.41946798E-01
  1.58122842E-01  2.79360748E-01 -3.35477634E-01  1.84053136E-01 -2.34984743E-01
 -3.80570500E-01  4.40912414E-01  1.55736460E-01 -1.88615517E-01 -5.00986502E-02
  5.87123757E-02  4.83795657E-01 -5.78824297E-01 -6.27450915E-01  7.30076438E-01
 -7.21259962E-16  7.36507015E-16 -1.04478376E-16 -1.04864797E-16 -6.47544395E-02
  8.28541909E-02 -3.00998494E-02  3.55041716E-02  2.06966273E-01 -2.33694677E-01
 -9.54007662E-02  1.14079084E-01 -2.11511293E-01  2.71449252E-01  6.54182198E-01
 -7.65931981E-01  3.59814243E-01 -4.01825293E-01 -6.88298011E-01  8.36664592E-01
  1.38240851E-01 -1.64725193E-01  1.12490326E-01 -1.24348962E-01 -5.85210643E-01
  6.95489866E-01  3.39284802E-01 -4.07076869E-01  1.02373531E-15 -1.05639940E-15
  1.87444541E-17 -1.94100013E-16 -1.08210149E-02  1.90488183E-02  6.38657541E-01
 -7.61736509E-01  1.04321557E-01 -1.18535906E-01 -7.18473810E-01  8.58019489E-01
 -8.44729814E-02  1.08121420E-01  2.24229652E-01 -2.62674214E-01  1.40308716E-01
 -1.54221896E-01 -2.35423412E-01  2.87076253E-01  7.80980015E-02 -9.26515926E-02
  4.99025017E-02 -5.51742656E-02  4.59123692E-01 -5.47496898E-01 -5.80163860E-01
  6.92407193E-01 -1.20533549E-15  1.25690053E-15 -3.85680067E-16  4.42395424E-16
 -4.04597348E-01  4.93444966E-01 -4.84149471E-02  5.81854273E-02  3.75943652E-01
 -4.75754289E-01  5.67276181E-02 -7.04761082E-02  1.27209138E-01 -6.57114311E-02
  4.75634106E-01 -5.00963588E-01 -2.04556216E-01  3.45288995E-01  1.53122291E-01
 -1.03618823E-01 -1.01968071E+00  1.11551487E+00  7.94473620E-02 -2.47676890E-01
  9.27144703E-02 -2.61372101E-01 -5.34869852E-02 -7.98253721E-02  1.01213472E-15
 -1.04604482E-15  7.11382785E-16 -6.08048139E-16  1.27398581E-01 -3.07712833E-01
 -7.23488929E-01  7.59010542E-01  2.52582019E-01 -4.70036742E-01 -5.56091437E-01
  5.52467805E-01  6.38907753E-01 -7.43381725E-01  2.27304877E-01 -2.27133460E-01
 -3.95071001E-01  5.59841920E-01 -1.14400722E-01  1.96609050E-01  2.94245200E-01
 -3.07947708E-01 -1.63954168E-01  2.59399612E-01  1.88566581E-01 -1.67751187E-01
  5.52115313E-02 -4.19846738E-03  1.31735531E-15 -1.38301017E-15 -4.92782402E-17
  7.48951130E-17  3.25166652E-01 -4.82692280E-01 -1.82372851E-01  1.76808317E-01
 -3.85872580E-01  4.20334973E-01 -1.14270754E-01  9.17574658E-02 -1.99308918E-01
  4.26144806E-01  6.33792708E-01 -6.37884493E-01 -9.34032982E-02  3.03506401E-01
  6.82379081E-01 -7.01178892E-01  1.60340929E-01 -1.57193471E-01  6.00904069E-01
 -7.31758093E-01 -2.23316181E-01  3.36190181E-01 -2.63768530E-01  3.84607228E-01
 -3.60826648E-16  3.52196313E-16  1.87935912E-15 -1.92198116E-15  2.18547397E-01
  1.24001758E-02  5.15724289E-01 -3.84446768E-01  4.76847477E-01 -3.33736970E-01
  5.16533603E-01 -3.85375616E-01  5.20011623E-01 -4.43896577E-01  4.05249240E-01
 -2.94895716E-01  1.76587355E-01  8.52510398E-03  2.97235144E-01 -1.55342890E-01
  3.77095865E-01 -2.90414990E-01  8.28837335E-02  1.01519606E-01  3.77258718E-01
 -2.90553638E-01  3.69480518E-01 -2.80804540E-01  3.74798075E-15 -3.86489781E-15
 -7.22265215E-16  6.72269356E-16  6.67762041E-01 -7.34308635E-01  1.42726170E-01
 -6.96790322E-03  1.24091802E-01  2.07956993E-02  1.39710029E-01 -3.06994187E-03
  3.32646502E-01 -3.54733810E-01  8.24039284E-02 -4.02284251E-03  1.32825546E-01
 -7.13277328E-02  7.02958822E-02  1.17432006E-02 -2.40671619E-01 -4.34371415E-02
 -6.75546577E-01  5.54609935E-01 -6.20210733E-01  4.81736759E-01 -5.98486637E-01
  4.49542624E-01 -8.97852160E-16  9.28882742E-16  5.75927327E-17 -8.97984083E-17
 -5.40428269E-01  5.07180281E-01 -1.29647425E-01 -7.97686146E-02 -5.65684223E-01
  5.42435196E-01 -2.15559666E-01  3.52646371E-02  4.13126704E-01 -2.54871527E-01
  1.84740302E-01  6.90688964E-02  8.65291630E-01 -9.08692281E-01  3.54629810E-01
 -1.60501282E-01 -1.77494938E-02 -2.42026292E-02 -4.12802160E-01  5.52449382E-01
  4.93552529E-02 -1.29240414E-01  1.10592330E-01 -2.09823694E-01  4.56317968E-16
 -4.69218690E-16 -2.47962235E-15  2.51756047E-15  1.02963949E-15 -1.57034974E-16
  2.23151246E-16  5.06089256E-16  3.17482156E-15 -3.13165841E-15  1.25418648E-15
 -7.86318124E-16  1.85824757E-15 -1.58464594E-15  3.00337360E-15 -2.81538883E-15
  1.21607629E-16  8.73734950E-16  8.93407104E-16 -1.92898667E-16  3.69928961E-16
  4.39403289E-16 -6.42797057E-16  1.71635310E-15  1.76341615E-15 -1.21246250E-15
  4.81973945E-15 -4.90897286E-15 -1.14981805E+00  1.18695880E+00 -9.08821282E-11
  9.38177951E-11  8.50482678E-16 -1.15407109E-15 -7.69497934E-16  1.34849509E-15
  1.03441823E-15 -1.21704033E-15  3.52451062E-16 -1.58212790E-16 -1.64877779E-15
  1.86247393E-15  6.98879925E-16 -1.39434594E-15 -2.43271364E-15  3.04811428E-15
  8.63053346E-16 -1.42964400E-15 -2.45862634E-16  3.35710639E-16  2.32332727E-15
 -3.14899648E-15 -1.57893805E-15  1.86722455E-15 -1.29457177E-15  1.50530994E-15
  9.08825549E-11 -9.38181661E-11 -1.14981805E+00  1.18695880E+00
Beta MO coefficients                       R   N=         784
  1.47953739E-21 -2.73265206E-21 -6.58195391E-21  1.06323830E-20 -1.85056660E-21
 -1.05700849E-21  1.43900036E-21 -8.56479649E-22 -2.80135732E-21  6.26724647E-21
  1.13608854E-21 -1.30068659E-21  1.03931658E-21 -2.88040774E-21 -1.08932269E-21
 -1.83676243E-21  3.69086254E-21 -5.97926335E-21 -1.84141540E-21  1.61227865E-21
 -8.69288858E-22  4.96145524E-21 -1.17181459E-21  1.19625692E-21 -5.92081261E-01
 -5.13586011E-01  4.21651621E-21 -4.35384338E-21 -2.21688218E-16 -1.05402432E-16
  1.05625486E-16 -2.54294746E-18  1.02449189E-16 -3.27718686E-16  1.32965061E-16
 -6.40118545E-17 -6.63037700E-17 -2.36240804E-16 -3.95963591E-17 -3.09141748E-16
 -9.82372064E-17 -3.62688567E-16 -1.61651204E-16  2.21218814E-16  3.81533543E-16
  9.37862605E-18  9.93274117E-17 -1.11144050E-16 -2.89961301E-17  1.02620827E-16
 -1.03438354E-16  2.82571627E-17  5.04340971E-17 -5.20631891E-17 -5.92081261E-01
 -5.13586011E-01 -1.71117180E-02 -9.04216895E-02  4.43718136E-01  7.24304723E-01
 -1.67660728E-02 -9.01566159E-02 -1.59446209E-02 -8.97402370E-02 -1.16937394E-03
 -4.66298637E-04 -7.74118822E-04 -6.90603743E-04  6.21765053E-03  5.08885053E-03
  9.93244124E-04 -4.93867354E-04 -8.49860310E-04 -6.53090680E-04  8.13180947E-04
 -1.18436437E-04  2.46400105E-03  1.92785755E-03  5.44271972E-04  2.04952107E-03
  1.13243216E-17  9.82299939E-18  4.46206957E-17  3.87051011E-17 -7.21825814E-03
 -4.20676275E-03  7.02931555E-04  5.56095139E-04  1.10492038E-03  3.79455573E-04
  7.33840166E-04  4.99534709E-04 -2.23106294E-03 -2.18509338E-03  1.05277685E-03
  6.26131966E-04 -4.15268941E-03 -2.81308427E-03  5.18077033E-04  8.59652884E-04
 -4.43829326E-01 -7.24153245E-01  1.70312637E-02  9.05040217E-02  1.67716645E-02
  8.96908574E-02  1.66120671E-02  8.98244665E-02  5.96195565E-17  5.17154840E-17
  1.34491613E-16  1.16661370E-16  2.98692601E-03  2.04816394E-03 -9.02442585E-04
 -6.91135759E-04  2.21778816E-03  2.88758089E-03 -3.92663459E-04 -7.03067966E-04
 -1.66127719E-02 -8.98536238E-02  4.43673067E-01  7.24411092E-01 -1.74264696E-02
 -9.06642921E-02 -1.59798052E-02 -9.00130097E-02 -1.08821903E-03 -5.19340054E-04
  5.69482572E-03  5.50404013E-03  2.86831126E-05 -6.66594168E-04 -2.99230852E-04
 -8.83973354E-04  6.35505630E-17  5.51253394E-17  1.32911434E-16  1.15290683E-16
 -8.20464812E-03 -1.71043706E-02 -4.10227872E-04  3.02993327E-03  6.93956943E-04
  2.46722085E-03  1.67869598E-03  2.12487160E-03  1.90258658E-03  2.31624646E-03
 -4.80177391E-04 -9.19361496E-04  1.46384836E-03  3.03310641E-03 -6.45845519E-04
 -7.02054315E-04 -1.61896293E-02 -8.97469664E-02 -1.62833877E-02 -9.04345432E-02
 -1.53167077E-02 -8.98581449E-02  4.43832395E-01  7.24945764E-01 -3.32476869E-17
 -2.88398704E-17  1.60731883E-16  1.39422833E-16 -1.92970011E-03 -2.40804937E-03
  1.20767682E-03  5.28974340E-04 -4.52879672E-03 -2.51016914E-03  3.07297477E-04
  8.15928216E-04 -4.44370056E-01 -7.24703784E-01  1.61895826E-02  8.96875178E-02
  1.57073051E-02  8.99273430E-02  1.63348672E-02  8.98506751E-02 -1.08229325E-03
 -3.05165652E-03  1.01644879E-02  2.01905987E-02 -1.56953377E-03 -2.88735030E-03
 -9.67196724E-04 -2.87667104E-03  1.51787141E-17  1.31663928E-17  6.73542644E-17
  5.84247640E-17  1.55194082E-02  8.95908224E-02  1.62014627E-02  8.99711412E-02
 -4.44338529E-01 -7.25252124E-01  1.59684744E-02  9.02539062E-02 -2.72426743E-03
 -3.87353739E-03 -5.23925900E-04 -4.49627544E-03  9.67496593E-03  2.38457820E-02
  5.81550085E-03  1.29996543E-03  1.12754510E-03  6.32250150E-04 -7.75697284E-04
 -1.10434710E-03 -2.53374067E-03 -1.71451355E-03 -1.77074093E-03 -1.52337005E-03
  6.47863438E-19  5.61972263E-19 -1.10374522E-16 -9.57416055E-17 -1.66890877E-02
 -9.04074164E-02 -1.59103533E-02 -8.97692211E-02 -1.64158210E-02 -9.01936858E-02
  4.43449877E-01  7.24474940E-01 -5.15025579E-04 -5.82536330E-04 -4.98305540E-04
 -5.30236198E-04  1.94479624E-03  4.66747603E-03  1.74178729E-03 -6.47992016E-04
 -8.71674686E-04 -5.85111192E-04  9.80536673E-04 -2.56653682E-04  3.27529091E-04
  2.58158240E-03  2.64608596E-03  1.35271009E-03 -2.36826247E-17 -2.05428968E-17
  9.32812289E-17  8.09144577E-17 -9.01869149E-04 -3.28577003E-03 -2.21677207E-04
  4.82828825E-05  4.82431036E-03  2.52349326E-03 -1.20042418E-03  4.28290950E-04
  1.66379416E-02  8.99756939E-02  1.58714782E-02  9.00750897E-02  1.64641877E-02
  9.04200753E-02 -4.43545639E-01 -7.24491978E-01  7.06915402E-04  6.24841926E-04
 -3.59830227E-03 -5.42525121E-03 -5.04960576E-04  9.39012210E-04  5.95730857E-04
  6.33512100E-04  2.20461953E-17  1.91234166E-17 -2.15911206E-18 -1.87286747E-18
  8.72261752E-03  2.02579801E-02 -1.47020839E-03 -2.78468813E-03 -1.42645748E-03
 -2.60557920E-03  6.59567355E-04 -3.57215718E-03 -2.35673333E-03 -2.47347415E-03
  3.01709295E-04  5.98780133E-04  1.59935869E-03 -1.73233004E-03 -3.05165183E-04
  9.14498196E-04  1.62921854E-02  8.95423708E-02  1.59292155E-02  9.05129535E-02
 -4.43942158E-01 -7.25077689E-01  1.52745802E-02  8.99061741E-02  1.65990785E-17
  1.43984506E-17  1.62479619E-17  1.40938862E-17  1.05626995E-02  1.95607501E-02
 -3.82363340E-03 -6.98920300E-03  1.00296973E-02  2.29768886E-02  1.80039125E-04
 -6.65780954E-03  1.50047676E-02  8.97216389E-02  1.62264248E-02  9.01335424E-02
 -4.46143984E-01 -7.27105607E-01  1.55566082E-02  9.03863336E-02 -2.57617996E-03
 -3.98017413E-03  1.02557555E-02  2.75106302E-02  2.72048483E-03 -2.83271716E-03
 -1.33657264E-04 -4.21300901E-03  4.70079578E-19  4.07756665E-19 -7.95706252E-17
 -6.90215392E-17  4.45677781E-01  7.25678116E-01 -1.62393535E-02 -9.00542307E-02
 -1.52099432E-02 -8.93361944E-02 -1.59123115E-02 -9.02795893E-02  7.43836901E-04
  3.36149597E-03  1.86888046E-03  2.82082742E-03 -9.58015698E-03 -2.17304242E-02
  4.50282692E-04  3.48112437E-03  4.72169264E-03  6.03561991E-03 -4.14562895E-03
 -7.45757766E-04 -9.70722772E-03 -1.73266112E-02 -9.27921929E-03 -1.43058733E-02
 -3.37660342E-17 -2.92894994E-17  3.43390336E-17  2.97865318E-17  2.19625912E-03
  3.44405286E-03 -4.60241978E-04 -2.84689426E-04 -3.23378720E-04 -1.72219052E-03
 -6.08970232E-04 -2.38208385E-04  1.10777897E-02  1.79789730E-02 -3.36725947E-03
 -7.24904603E-03  1.11022641E-02  2.61614928E-02 -1.41011958E-03 -7.14064413E-03
  1.61956987E-02  9.00908868E-02 -4.45490280E-01 -7.26070922E-01  1.56648112E-02
  9.02499453E-02  1.59330897E-02  9.00350333E-02  6.93074121E-19  6.01191463E-19
 -3.43845442E-17 -2.98260088E-17 -6.62243793E-01  6.61308937E-01  2.92108636E-01
 -3.61086792E-01 -9.63090981E-02  4.34096075E-02  1.45758230E-01 -1.97446428E-01
 -3.68882770E-02 -5.24945672E-03  2.65259819E-01 -3.27885684E-01 -6.31759845E-01
  6.23574471E-01  1.13298485E-01 -1.57733921E-01  4.35500192E-01 -5.36351319E-01
 -4.10395799E-01  3.67609557E-01 -2.95915945E-01  2.54989347E-01 -1.71983771E-01
  1.21136962E-01 -3.45589510E-16  3.56588392E-16  3.26312295E-16 -3.54981436E-16
 -1.66726863E-01  1.51052379E-01  2.00815121E-01 -2.51822420E-01 -3.61029954E-01
  3.83761870E-01  1.50013451E-01 -1.93564116E-01  7.70536070E-01 -8.46319160E-01
 -1.91397009E-01  2.27972668E-01 -9.49672032E-02  1.30172193E-01 -3.86132703E-01
  4.49202298E-01 -6.01805203E-02  7.40671416E-02  6.34095629E-01 -6.96668321E-01
 -2.75424027E-01  3.14374660E-01 -2.50370206E-01  2.86823696E-01 -1.33268396E-15
  1.36927497E-15  4.39107682E-17 -3.20850548E-17 -3.99946167E-01  4.64591335E-01
 -2.14608807E-01  2.59100150E-01  7.54558057E-01 -8.43127104E-01 -5.55304393E-02
  7.54491672E-02 -1.83980576E-02  7.48104764E-02 -3.46457680E-01  4.38727571E-01
  3.55381740E-01 -3.32568076E-01  3.35122171E-01 -3.43110766E-01  2.70597133E-01
 -3.32218859E-01  2.98060702E-01 -3.53883754E-01 -3.27065996E-01  3.41338740E-01
 -3.98674145E-01  4.25859552E-01 -7.18236182E-16  7.38399758E-16  5.46954892E-16
 -8.72376936E-16 -9.08687947E-02  1.13377023E-01 -4.74636799E-01  5.57984857E-01
 -8.67534251E-02  1.09564159E-01  6.60783181E-01 -7.79019052E-01 -1.41946798E-01
  1.58122842E-01  2.79360748E-01 -3.35477634E-01  1.84053136E-01 -2.34984743E-01
 -3.80570500E-01  4.40912414E-01  1.55736460E-01 -1.88615517E-01 -5.00986502E-02
  5.87123757E-02  4.83795657E-01 -5.78824297E-01 -6.27450915E-01  7.30076438E-01
 -7.21259962E-16  7.36507015E-16 -1.04478376E-16 -1.04864797E-16 -6.47544395E-02
  8.28541909E-02 -3.00998494E-02  3.55041716E-02  2.06966273E-01 -2.33694677E-01
 -9.54007662E-02  1.14079084E-01 -2.11511293E-01  2.71449252E-01  6.54182198E-01
 -7.65931981E-01  3.59814243E-01 -4.01825293E-01 -6.88298011E-01  8.36664592E-01
  1.38240851E-01 -1.64725193E-01  1.12490326E-01 -1.24348962E-01 -5.85210643E-01
  6.95489866E-01  3.39284802E-01 -4.07076869E-01  1.02373531E-15 -1.05639940E-15
  1.87444541E-17 -1.94100013E-16 -1.08210149E-02  1.90488183E-02  6.38657541E-01
 -7.61736509E-01  1.04321557E-01 -1.18535906E-01 -7.18473810E-01  8.58019489E-01
 -8.44729814E-02  1.08121420E-01  2.24229652E-01 -2.62674214E-01  1.40308716E-01
 -1.54221896E-01 -2.35423412E-01  2.87076253E-01  7.80980015E-02 -9.26515926E-02
  4.99025017E-02 -5.51742656E-02  4.59123692E-01 -5.47496898E-01 -5.80163860E-01
  6.92407193E-01 -1.20533549E-15  1.25690053E-15 -3.85680067E-16  4.42395424E-16
 -4.04597348E-01  4.93444966E-01 -4.84149471E-02  5.81854273E-02  3.75943652E-01
 -4.75754289E-01  5.67276181E-02 -7.04761082E-02  1.27209138E-01 -6.57114311E-02
  4.75634106E-01 -5.00963588E-01 -2.04556216E-01  3.45288995E-01  1.53122291E-01
 -1.03618823E-01 -1.01968071E+00  1.11551487E+00  7.94473620E-02 -2.47676890E-01
  9.27144703E-02 -2.61372101E-01 -5.34869852E-02 -7.98253721E-02  1.01213472E-15
 -1.04604482E-15  7.11382785E-16 -6.08048139E-16  1.27398581E-01 -3.07712833E-01
 -7.23488929E-01  7.59010542E-01  2.52582019E-01 -4.70036742E-01 -5.56091437E-01
  5.52467805E-01  6.38907753E-01 -7.43381725E-01  2.27304877E-01 -2.27133460E-01
 -3.95071001E-01  5.59841920E-01 -1.14400722E-01  1.96609050E-01  2.94245200E-01
 -3.07947708E-01 -1.63954168E-01  2.59399612E-01  1.88566581E-01 -1.67751187E-01
  5.52115313E-02 -4.19846738E-03  1.31735531E-15 -1.38301017E-15 -4.92782402E-17
  7.48951130E-17  3.25166652E-01 -4.82692280E-01 -1.82372851E-01  1.76808317E-01
 -3.85872580E-01  4.20334973E-01 -1.14270754E-01  9.17574658E-02 -1.99308918E-01
  4.26144806E-01  6.33792708E-01 -6.37884493E-01 -9.34032982E-02  3.03506401E-01
  6.82379081E-01 -7.01178892E-01  1.60340929E-01 -1.57193471E-01  6.00904069E-01
 -7.31758093E-01 -2.23316181E-01  3.36190181E-01 -2.63768530E-01  3.84607228E-01