Jobname.Temp
SP        RO                            6-31G(d)            
Number of atoms                            I               14
Charge                                     I                0
Multiplicity                               I               13
Number of electrons                        I               16
Number of alpha electrons                  I               14
Number of beta electrons                   I                2
Atomic numbers                             I   N=          14
           1           1           1           1           1           1
           1           1           1           1           1           1
           2           2
Current cartesian coordinates              R   N=          42
 -1.39563833E+00 -1.02168043E+00  1.62062912E-01 -4.37169242E+00 -1.92275854E+00
 -1.26643776E+00 -3.96052581E+00  1.23869658E+00 -2.16562614E-02 -4.17712622E+00
 -1.42555270E+00  2.11639877E+00  2.79063416E+00  6.18324057E+00  1.85722284E-01
  3.18418852E-01  7.29475858E+00  2.27798925E+00  3.45574216E-01  4.03418733E+00
  1.24094535E+00 -4.09806007E-01  6.52953289E+00 -9.77800989E-01  6.59230959E+00
 -1.65451191E+00 -1.14970937E-01  4.33973715E+00  9.17991157E-01 -3.60937690E-03
  3.66531279E+00 -2.01588424E+00  1.62501329E+00  3.62048849E+00 -1.90796198E+00
 -1.79565556E+00  1.88972612E+01  1.88972612E+01  1.88972612E+01 -1.88972612E+01
  1.88972612E+01  1.88972612E+01
Nuclear charges                            R   N=          14
  1.00000000E+00  1.00000000E+00  1.00000000E+00  1.00000000E+00  1.00000000E+00
  1.00000000E+00  1.00000000E+00  1.00000000E+00  1.00000000E+00  1.00000000E+00
  1.00000000E+00  1.00000000E+00  2.00000000E+00  2.00000000E+00
Number of basis functions                  I               28
Number of contracted shells                I               28
Number of primitive shells                 I               56
Highest angular momentum                   I                0
Largest degree of contraction              I                3
Shell types                                I   N=          28
           0           0           0           0           0           0
           0           0           0           0           0           0
           0           0           0           0           0           0
           0           0           0           0           0           0
           0           0           0           0
Number of primitives per shell             I   N=          28
           3           1           3           1           3           1
           3           1           3           1           3           1
           3           1           3           1           3           1
           3           1           3           1           3           1
           3           1           3           1
Shell to atom map                          I   N=          28
           1           1           2           2           3           3
           4           4           5           5           6           6
           7           7           8           8           9           9
          10          10          11          11          12          12
          13          13          14          14
Primitive exponents                        R   N=          56
  1.87311370E+01  2.82539370E+00  6.40121700E-01  1.61277800E-01  1.87311370E+01
  2.82539370E+00  6.40121700E-01  1.61277800E-01  1.87311370E+01  2.82539370E+00
  6.40121700E-01  1.61277800E-01  1.87311370E+01  2.82539370E+00  6.40121700E-01
  1.61277800E-01  1.87311370E+01  2.82539370E+00  6.40121700E-01  1.61277800E-01
  1.87311370E+01  2.82539370E+00  6.40121700E-01  1.61277800E-01  1.87311370E+01
  2.82539370E+00  6.40121700E-01  1.61277800E-01  1.87311370E+01  2.82539370E+00
  6.40121700E-01  1.61277800E-01  1.87311370E+01  2.82539370E+00  6.40121700E-01
  1.61277800E-01  1.87311370E+01  2.82539370E+00  6.40121700E-01  1.61277800E-01
  1.87311370E+01  2.82539370E+00  6.40121700E-01  1.61277800E-01  1.87311370E+01
  2.82539370E+00  6.40121700E-01  1.61277800E-01  3.84216340E+01  5.77803000E+00
  1.24177400E+00  2.97964000E-01  3.84216340E+01  5.77803000E+00  1.24177400E+00
  2.97964000E-01
Contraction coefficients                   R   N=          56
  3.34945995E-02  2.34726947E-01  8.13757318E-01  1.00000000E+00  3.34945995E-02
  2.34726947E-01  8.13757318E-01  1.00000000E+00  3.34945995E-02  2.34726947E-01
  8.13757318E-01  1.00000000E+00  3.34945995E-02  2.34726947E-01  8.13757318E-01
  1.00000000E+00  3.34945995E-02  2.34726947E-01  8.13757318E-01  1.00000000E+00
  3.34945995E-02  2.34726947E-01  8.13757318E-01  1.00000000E+00  3.34945995E-02
  2.34726947E-01  8.13757318E-01  1.00000000E+00  3.34945995E-02  2.34726947E-01
  8.13757318E-01  1.00000000E+00  3.34945995E-02  2.34726947E-01  8.13757318E-01
  1.00000000E+00  3.34945995E-02  2.34726947E-01  8.13757318E-01  1.00000000E+00
  3.34945995E-02  2.34726947E-01  8.13757318E-01  1.00000000E+00  3.34945995E-02
  2.34726947E-01  8.13757318E-01  1.00000000E+00  4.01397393E-02  2.61246097E-01
  7.93184625E-01  1.00000000E+00  4.01397393E-02  2.61246097E-01  7.93184625E-01
  1.00000000E+00
Coordinates of each shell                  R   N=          84
 -1.39563833E+00 -1.02168043E+00  1.62062912E-01 -1.39563833E+00 -1.02168043E+00
  1.62062912E-01 -4.37169242E+00 -1.92275854E+00 -1.26643776E+00 -4.37169242E+00
 -1.92275854E+00 -1.26643776E+00 -3.96052581E+00  1.23869658E+00 -2.16562614E-02
 -3.96052581E+00  1.23869658E+00 -2.16562614E-02 -4.17712622E+00 -1.42555270E+00
  2.11639877E+00 -4.17712622E+00 -1.42555270E+00  2.11639877E+00  2.79063416E+00
  6.18324057E+00  1.85722284E-01  2.79063416E+00  6.18324057E+00  1.85722284E-01
  3.18418852E-01  7.29475858E+00  2.27798925E+00  3.18418852E-01  7.29475858E+00
  2.27798925E+00  3.45574216E-01  4.03418733E+00  1.24094535E+00  3.45574216E-01
  4.03418733E+00  1.24094535E+00 -4.09806007E-01  6.52953289E+00 -9.77800989E-01
 -4.09806007E-01  6.52953289E+00 -9.77800989E-01  6.59230959E+00 -1.65451191E+00
 -1.14970937E-01  6.59230959E+00 -1.65451191E+00 -1.14970937E-01  4.33973715E+00
  9.17991157E-01 -3.60937690E-03  4.33973715E+00  9.17991157E-01 -3.60937690E-03
  3.66531279E+00 -2.01588424E+00  1.62501329E+00  3.66531279E+00 -2.01588424E+00
  1.62501329E+00  3.62048849E+00 -1.90796198E+00 -1.79565556E+00  3.62048849E+00
 -1.90796198E+00 -1.79565556E+00  1.88972612E+01  1.88972612E+01  1.88972612E+01
  1.88972612E+01  1.88972612E+01  1.88972612E+01 -1.88972612E+01  1.88972612E+01
  1.88972612E+01 -1.88972612E+01  1.88972612E+01  1.88972612E+01
SCF Energy                                 R     -1.146927151361227E+01
Number of independent functions            I               28
Alpha MO coefficients                      R   N=         784
  7.00164925E-22 -6.68150130E-22  1.06290330E-21  1.05225376E-21  1.24396541E-21
 -2.48829169E-21  1.07326228E-21 -2.12733780E-21  3.37756477E-21 -6.43332973E-21
 -6.36462489E-21  1.11194291E-20  8.47094765E-22 -2.86876383E-21 -7.92866370E-22
  1.03894553E-21  4.65698927E-21 -9.02894511E-21 -3.36728444E-21  8.28696672E-21
  1.04091218E-21  6.63957148E-22  1.22132431E-21 -3.87114237E-21 -5.92081261E-01
 -5.13586011E-01 -3.04138370E-21  3.14078797E-21  9.71238439E-17 -3.33488001E-17
 -1.10142447E-16  3.63271433E-16 -1.50403531E-16  2.20728206E-16  1.64337462E-16
  3.09162753E-17  7.44113061E-17 -2.77913250E-16 -1.75364289E-16 -2.10096566E-16
 -3.46477624E-16 -1.00506551E-16 -4.28323198E-16 -5.86549024E-17  5.61687197E-17
  3.05739560E-16 -9.48536587E-17  1.91166048E-16 -9.83910147E-18  2.91026458E-17
  3.25583076E-16 -1.03961511E-16  4.89675566E-17 -5.05492781E-17 -5.92081261E-01
 -5.13586011E-01 -7.29125740E-03 -4.20651624E-03  7.25039343E-04  5.45129235E-04
  1.05664047E-03  3.79726307E-04  7.38455769E-04  5.01262200E-04 -2.04106450E-03
 -1.59757748E-03  9.82706849E-04  4.53881994E-04 -3.92351437E-03 -2.37480585E-03
  5.00374322E-04  6.85069460E-04 -4.43827704E-01 -7.24117627E-01  1.68892230E-02
  9.03428652E-02  1.67721049E-02  8.97102521E-02  1.66300909E-02  8.98367033E-02
  5.97098609E-17  5.17911071E-17  2.56836235E-16  2.32712673E-16 -2.71350901E-03
 -1.46544905E-03  8.65836788E-04  5.13810195E-04 -2.27906376E-03 -2.53680958E-03
  3.71860202E-04  5.87847157E-04  1.64886419E-02  8.97782917E-02 -4.43653703E-01
 -7.24349718E-01  1.71951127E-02  9.04398984E-02  1.59939239E-02  9.00419427E-02
  1.01512100E-03  3.64944326E-04 -5.42367904E-03 -4.43274010E-03  1.59924837E-05
  5.70913930E-04  3.32478934E-04  6.98077076E-04 -1.07975018E-16 -9.36827876E-17
 -1.81595995E-16 -1.74348183E-16  1.66298879E-02  9.03255282E-02  1.59356684E-02
  8.97718232E-02  1.63636318E-02  9.01479799E-02 -4.43465337E-01 -7.24433748E-01
  5.03445460E-04  4.61746031E-04  4.77085574E-04  4.30121745E-04 -2.01099611E-03
 -4.00965016E-03 -1.52786362E-03  6.83582587E-04  8.82081619E-04  5.86475478E-04
 -1.01217792E-03  2.10380904E-04 -3.41596040E-04 -2.56771338E-03 -2.64483667E-03
 -1.34356651E-03 -5.19055290E-17 -4.50343632E-17  1.02743759E-16  9.55243922E-17
 -8.15903972E-03 -1.70937950E-02 -4.21302380E-04  3.03132051E-03  7.08495075E-04
  2.48529897E-03  1.67818571E-03  2.11906122E-03  1.79590759E-03  1.70341148E-03
 -4.88434041E-04 -7.33330968E-04  1.51458444E-03  2.70807236E-03 -5.82419631E-04
 -5.80925365E-04 -1.62118226E-02 -8.97464260E-02 -1.61823482E-02 -9.03167693E-02
 -1.53175066E-02 -8.98705096E-02  4.43844860E-01  7.24908256E-01  7.46528275E-17
  6.47629331E-17 -2.96821051E-16 -2.67681143E-16 -1.78234226E-03 -1.83695866E-03
  1.12195866E-03  3.68298431E-04 -4.27541451E-03 -2.10681905E-03  3.12264819E-04
  6.69898758E-04 -4.44172219E-01 -7.24462644E-01  1.61846224E-02  8.96828962E-02
  1.57408474E-02  9.00338101E-02  1.62979718E-02  8.98338438E-02 -9.87657484E-04
 -2.39569554E-03  9.21546479E-03  1.58009557E-02 -1.47272214E-03 -2.20575219E-03
 -9.28815017E-04 -2.25526997E-03 -1.05362928E-17 -9.17894621E-18 -8.89433634E-17
 -9.33575853E-17 -1.56415382E-02 -8.98307250E-02 -1.61994864E-02 -8.99375719E-02
  4.44269892E-01  7.25057116E-01 -1.59877836E-02 -9.01865033E-02  2.56802819E-03
  3.36708377E-03  6.59800759E-04  4.01116477E-03 -9.47749371E-03 -2.18154121E-02
 -5.28578762E-03 -2.93530308E-04 -1.09938742E-03 -6.12701692E-04  6.91097334E-04
  9.17415853E-04  2.49074806E-03  1.74526751E-03  1.76646812E-03  1.56021170E-03
  5.56557975E-17  4.83007667E-17  2.69134446E-17  1.82547540E-17 -1.69599028E-02
 -9.03364721E-02  4.43685491E-01  7.24290748E-01 -1.66582473E-02 -9.00851373E-02
 -1.59597912E-02 -8.97627495E-02 -1.09118417E-03 -3.10918313E-04 -7.58277204E-04
 -5.12542655E-04  5.88166062E-03  4.11339330E-03  8.74603428E-04 -5.10865234E-04
 -8.72709051E-04 -6.42825343E-04  9.07868411E-04 -9.13838238E-05  2.48479738E-03
  1.90835390E-03  5.36716859E-04  2.04552964E-03  3.31751666E-17  2.87768974E-17
 -1.12498043E-16 -1.04029485E-16 -9.76634596E-04 -2.59044408E-03 -1.84655324E-04
  1.23885060E-04  4.28813577E-03  1.45633043E-03 -1.04658854E-03  4.97051089E-04
  1.65241506E-02  8.99147245E-02  1.59139038E-02  9.00769734E-02  1.64054701E-02
  9.03016582E-02 -4.43538198E-01 -7.24430399E-01  6.71802215E-04  4.81230012E-04
 -3.48185355E-03 -4.49677548E-03 -3.95335663E-04  8.24010635E-04  5.45625834E-04
  5.12864366E-04  2.56522274E-17  2.22687714E-17 -3.23230643E-16 -2.96800024E-16
  8.73930639E-03  2.02427905E-02 -1.47734308E-03 -2.77545800E-03 -1.39517401E-03
 -2.62103500E-03  6.54253359E-04 -3.56698105E-03 -2.20576921E-03 -1.78480018E-03
  3.07494992E-04  5.16366357E-04  1.22920779E-03 -1.89372474E-03 -2.22701000E-04
  8.09536754E-04  1.63037172E-02  8.95466104E-02  1.58781129E-02  9.04268099E-02
 -4.43957509E-01 -7.25046370E-01  1.52814048E-02  8.99145255E-02 -1.04342011E-16
 -9.05224298E-17  2.48264991E-16  2.25585083E-16 -9.75847140E-03 -1.53077539E-02
  3.62162575E-03  5.85316850E-03 -9.85743280E-03 -2.09036617E-02 -2.30671755E-05
  5.87368227E-03 -1.51690441E-02 -8.99506802E-02 -1.62425101E-02 -9.00517397E-02
  4.45806405E-01  7.26304548E-01 -1.56644685E-02 -9.02596961E-02  2.43549373E-03
  3.44187728E-03 -1.00046168E-02 -2.46949465E-02 -2.34738670E-03  2.94872300E-03
  2.21532126E-04  3.81988061E-03  4.04739822E-17  3.51042553E-17  3.14894568E-16
  2.88583851E-16 -4.45515967E-01 -7.25399010E-01  1.62148058E-02  9.00520509E-02
  1.53360621E-02  8.95380891E-02  1.59444899E-02  9.01991523E-02 -6.94360771E-04
 -2.71044898E-03 -1.68189483E-03 -2.17907103E-03  8.71412765E-03  1.72961422E-02
 -5.43727972E-04 -2.82648903E-03 -4.76856437E-03 -6.05348922E-03  4.31401280E-03
  1.01262255E-03  9.76084900E-03  1.72730591E-02  9.27755375E-03  1.42599757E-02
  8.69076483E-17  7.53847874E-17  1.21814196E-17  1.76795630E-17 -2.37869382E-03
 -3.68640857E-03  5.16073275E-04  3.43421378E-04  2.23286871E-04  1.55399509E-03
  6.06713384E-04  3.10892199E-04 -1.01933609E-02 -1.37953121E-02  3.22626611E-03
  6.04573983E-03 -1.07898842E-02 -2.33609550E-02  1.40504690E-03  6.11235260E-03
 -1.62023434E-02 -9.00830372E-02  4.45149324E-01  7.25526640E-01 -1.57075692E-02
 -9.01897001E-02 -1.59422291E-02 -8.99860638E-02  7.78911448E-17  6.75678032E-17
 -1.44845681E-16 -1.33929987E-16 -6.45128021E-01  6.46989981E-01  2.90473051E-01
 -3.61125433E-01 -1.25328446E-01  7.70134628E-02  1.55526439E-01 -2.10008578E-01
 -4.91709849E-02  7.81077454E-03  2.68086230E-01 -3.34073319E-01 -6.42274227E-01
  6.39183502E-01  1.20608201E-01 -1.68875181E-01  4.26033823E-01 -5.25795803E-01
 -4.43014052E-01  4.07626993E-01 -2.67263387E-01  2.23685265E-01 -1.54732795E-01
  1.02122900E-01  4.10328255E-16 -4.22993399E-16  4.39737987E-16 -4.55386232E-16
 -2.39118214E-01  2.34641833E-01  1.81811403E-01 -2.28955445E-01 -2.56634552E-01
  2.69220522E-01  1.48695191E-01 -1.90873845E-01  7.59709888E-01 -8.34604426E-01
 -2.23620315E-01  2.71510483E-01 -5.33712125E-02  9.11956698E-02 -3.43181586E-01
  4.07935697E-01 -5.75983179E-03  8.37859738E-03  6.54460222E-01 -7.31022711E-01
 -3.27520386E-01  3.68221523E-01 -3.08576562E-01  3.47946136E-01 -2.28340571E-16
  2.09241655E-16  9.09081977E-16 -9.71981859E-16  4.05559243E-01 -4.71482776E-01
  2.22686942E-01 -2.70464732E-01 -7.89325812E-01  8.81941157E-01  6.44134543E-02
 -8.76690365E-02  1.46805727E-01 -2.11857865E-01  2.90343788E-01 -3.69707494E-01
 -3.75217044E-01  3.66440882E-01 -3.44563129E-01  3.59428799E-01 -3.06319405E-01
  3.75880295E-01 -1.87932204E-01  2.33812419E-01  3.01452247E-01 -3.08359980E-01
  3.73361284E-01 -3.93460233E-01 -1.15419455E-16  1.21163628E-16  1.62586653E-16
 -3.78141884E-16  7.18128510E-02 -8.91149955E-02  4.84647818E-01 -5.70484718E-01
  1.00950350E-01 -1.24928409E-01 -6.64349531E-01  7.83500728E-01  1.31415799E-01
 -1.46160059E-01 -2.78543702E-01  3.34873819E-01 -1.58973171E-01  2.04112663E-01
  3.64051158E-01 -4.21739163E-01 -1.37125304E-01  1.65862700E-01  5.20048996E-02
 -6.09838279E-02 -5.06389289E-01  6.04174979E-01  6.22576838E-01 -7.26490687E-01
 -6.10062922E-16  5.52390819E-16 -3.10214357E-16  3.20858307E-16  6.11919308E-02
 -7.63439438E-02 -9.52953136E-02  1.12999468E-01 -1.89910957E-01  2.13162722E-01
  2.05407632E-01 -2.45579877E-01  2.32814233E-01 -2.91960678E-01 -7.07957211E-01
  8.31922214E-01 -3.57834725E-01  4.04096418E-01  7.41671894E-01 -8.96027691E-01
 -1.50062775E-01  1.78824220E-01 -9.52727748E-02  1.04641871E-01  4.63963929E-01
 -5.50013712E-01 -2.21399988E-01  2.66379138E-01 -4.13138338E-16  3.87199515E-16
 -1.62315096E-16  1.88543768E-16  2.17385574E-03  1.90732475E-03  6.35838336E-01
 -7.58001482E-01  5.58563324E-02 -6.33263925E-02 -6.82821436E-01  8.15561743E-01
 -4.49868819E-02  5.62969088E-02  9.92016602E-02 -1.16629421E-01  6.60828948E-02
 -7.27367016E-02 -1.02939380E-01  1.25107307E-01  5.06258436E-02 -5.99520318E-02
  2.33050656E-02 -2.55989128E-02  5.64711505E-01 -6.73177115E-01 -6.33366042E-01
  7.56284921E-01  5.50128341E-16 -5.95520064E-16 -1.47820156E-16  7.01228264E-17
 -4.14773302E-01  5.09944143E-01 -3.09503700E-02  3.79465423E-02  3.78159088E-01
 -4.75201461E-01  5.92250792E-02 -7.22845792E-02  1.06761680E-01 -4.57937208E-02
  4.61316979E-01 -4.86807994E-01 -2.00873450E-01  3.37489630E-01  1.60619669E-01
 -1.16940248E-01 -1.02432204E+00  1.11891360E+00  9.11543744E-02 -2.63153758E-01
  7.45115864E-02 -2.42024124E-01 -5.84710467E-02 -7.67618497E-02  6.69364633E-16
 -6.80533588E-16  7.70958744E-16 -8.96661756E-16  8.67442703E-02 -2.36798626E-01
 -6.83404614E-01  7.21279981E-01  3.27445835E-01 -5.43890747E-01 -5.36011707E-01
  5.39900770E-01  6.67864889E-01 -7.89502607E-01  1.67154738E-01 -1.65071385E-01
 -3.85227479E-01  5.28990411E-01 -1.77573946E-01  2.61220969E-01  2.56971372E-01
 -2.70431208E-01 -2.25942630E-01  3.25505976E-01  2.01696476E-01 -1.94283354E-01
  8.00470983E-02 -4.54463693E-02  6.74447417E-16 -6.82845451E-16 -8.72000543E-16
  7.80377696E-16  3.20721492E-01 -4.96505755E-01 -2.70706944E-01  2.65306779E-01
 -3.49513571E-01  3.51113872E-01 -1.94201017E-01  1.70067697E-01 -1.41604237E-01
  3.45350586E-01  6.39107591E-01 -6.44320099E-01 -1.48051798E-01  3.65117249E-01
  6.58084115E-01 -6.69749189E-01  1.92566718E-01 -1.92203849E-01  5.90937819E-01
 -7.07685825E-01 -2.14126138E-01  3.29708985E-01 -2.58227289E-01  3.82381261E-01
  1.05085626E-16 -1.17445644E-16  3.43131716E-16 -3.10642276E-16  2.25861719E-01
  4.41488987E-03  5.20468007E-01 -3.88477982E-01  4.72628102E-01 -3.26460954E-01
  5.20516550E-01 -3.88436081E-01  5.08240483E-01 -4.22008369E-01  4.20536348E-01
 -3.08831040E-01  1.83082450E-01  4.58927610E-03  3.21419387E-01 -1.81286898E-01
  3.67555246E-01 -2.82167807E-01  9.22181941E-02  8.10237471E-02  3.62295085E-01
 -2.75140620E-01  3.56360423E-01 -2.67763464E-01  2.25384153E-15 -2.27365829E-15
  3.65738757E-16 -3.99223037E-16 -6.34155404E-01  7.06344467E-01 -1.31949242E-01
  1.05895510E-02 -7.82034308E-02 -6.54107284E-02 -1.24072957E-01  3.04635023E-04
 -3.39396576E-01  3.41166302E-01 -9.70693695E-02  5.78700938E-03 -1.87252527E-01
  1.30781241E-01 -1.00406140E-01  1.05765159E-02  2.48083373E-01  3.72896208E-02
  6.90739831E-01 -5.68723252E-01  6.23426302E-01 -4.81074414E-01  5.98038641E-01
 -4.44201742E-01 -1.86725848E-15  1.92293820E-15 -6.51987391E-16  6.41902240E-16
  5.69699368E-01 -5.28259293E-01  1.51443304E-01  6.06066713E-02  5.73640753E-01
 -5.34811346E-01  2.27915799E-01 -4.11870170E-02 -3.92401440E-01  2.29036765E-01
 -1.93669629E-01 -4.83786901E-02 -8.49285926E-01  8.80142566E-01 -3.47431313E-01
  1.57909118E-01  9.30154830E-03  1.06903025E-02  3.64592278E-01 -5.00505145E-01
 -9.44589108E-02  1.65683050E-01 -1.46488748E-01  2.33092723E-01 -1.41604284E-16
  1.86799281E-16  4.88303034E-15 -5.02292540E-15 -8.04408223E-16  5.22674508E-16
 -9.28940383E-16  4.29207011E-16 -1.84112440E-15  1.45996484E-15 -8.85959748E-16
  4.33388600E-16 -1.73881522E-15  1.50484487E-15 -2.51442199E-15  2.35482255E-15
 -3.92848481E-16 -2.83435702E-16 -6.98020138E-16  7.69246704E-17 -5.76999053E-17
  4.66203935E-16  1.74006410E-15 -1.83769615E-15 -3.12256624E-16  8.58012405E-16
  1.13052283E-15 -1.00709364E-15  1.14981805E+00 -1.18695880E+00  8.94572347E-12
 -9.23478928E-12 -2.22311083E-15  1.87383472E-15 -1.73042644E-15  6.86728101E-16
 -2.19438016E-15  1.75787041E-15 -2.40822188E-15  1.63596333E-15  1.14919416E-15
 -5.62148390E-16 -7.76043706E-17  1.16368029E-15  4.13625862E-15 -4.47610297E-15
  1.62488307E-15 -9.27414531E-16  8.81342098E-16 -9.12362955E-16 -2.27333402E-15
  3.32338563E-15  1.30709006E-15 -1.44099994E-15  1.57545967E-15 -1.85722863E-15
 -8.94585656E-12  9.23474611E-12  1.14981805E+00 -1.18695880E+00
Beta MO coefficients                       R   N=         784
  7.00164925E-22 -6.68150130E-22  1.06290330E-21  1.05225376E-21  1.24396541E-21
 -2.48829169E-21  1.07326228E-21 -2.12733780E-21  3.37756477E-21 -6.43332973E-21
 -6.36462489E-21  1.11194291E-20  8.47094765E-22 -2.86876383E-21 -7.92866370E-22
  1.03894553E-21  4.65698927E-21 -9.02894511E-21 -3.36728444E-21  8.28696672E-21
  1.04091218E-21  6.63957148E-22  1.22132431E-21 -3.87114237E-21 -5.92081261E-01
 -5.13586011E-01 -3.04138370E-21  3.14078797E-21  9.71238439E-17 -3.33488001E-17
 -1.10142447E-16  3.63271433E-16 -1.50403531E-16  2.20728206E-16  1.64337462E-16
  3.09162753E-17  7.44113061E-17 -2.77913250E-16 -1.75364289E-16 -2.10096566E-16
 -3.46477624E-16 -1.00506551E-16 -4.28323198E-16 -5.86549024E-17  5.61687197E-17
  3.05739560E-16 -9.48536587E-17  1.91166048E-16 -9.83910147E-18  2.91026458E-17
  3.25583076E-16 -1.03961511E-16  4.89675566E-17 -5.05492781E-17 -5.92081261E-01
 -5.13586011E-01 -7.29125740E-03 -4.20651624E-03  7.25039343E-04  5.45129235E-04
  1.05664047E-03  3.79726307E-04  7.38455769E-04  5.01262200E-04 -2.04106450E-03
 -1.59757748E-03  9.82706849E-04  4.53881994E-04 -3.92351437E-03 -2.37480585E-03
  5.00374322E-04  6.85069460E-04 -4.43827704E-01 -7.24117627E-01  1.68892230E-02
  9.03428652E-02  1.67721049E-02  8.97102521E-02  1.66300909E-02  8.98367033E-02
  5.97098609E-17  5.17911071E-17  2.56836235E-16  2.32712673E-16 -2.71350901E-03
 -1.46544905E-03  8.65836788E-04  5.13810195E-04 -2.27906376E-03 -2.53680958E-03
  3.71860202E-04  5.87847157E-04  1.64886419E-02  8.97782917E-02 -4.43653703E-01
 -7.24349718E-01  1.71951127E-02  9.04398984E-02  1.59939239E-02  9.00419427E-02
  1.01512100E-03  3.64944326E-04 -5.42367904E-03 -4.43274010E-03  1.59924837E-05
  5.70913930E-04  3.32478934E-04  6.98077076E-04 -1.07975018E-16 -9.36827876E-17
 -1.81595995E-16 -1.74348183E-16  1.66298879E-02  9.03255282E-02  1.59356684E-02
  8.97718232E-02  1.63636318E-02  9.01479799E-02 -4.43465337E-01 -7.24433748E-01
  5.03445460E-04  4.61746031E-04  4.77085574E-04  4.30121745E-04 -2.01099611E-03
 -4.00965016E-03 -1.52786362E-03  6.83582587E-04  8.82081619E-04  5.86475478E-04
 -1.01217792E-03  2.10380904E-04 -3.41596040E-04 -2.56771338E-03 -2.64483667E-03
 -1.34356651E-03 -5.19055290E-17 -4.50343632E-17  1.02743759E-16  9.55243922E-17
 -8.15903972E-03 -1.70937950E-02 -4.21302380E-04  3.03132051E-03  7.08495075E-04
  2.48529897E-03  1.67818571E-03  2.11906122E-03  1.79590759E-03  1.70341148E-03
 -4.88434041E-04 -7.33330968E-04  1.51458444E-03  2.70807236E-03 -5.82419631E-04
 -5.80925365E-04 -1.62118226E-02 -8.97464260E-02 -1.61823482E-02 -9.03167693E-02
 -1.53175066E-02 -8.98705096E-02  4.43844860E-01  7.24908256E-01  7.46528275E-17
  6.47629331E-17 -2.96821051E-16 -2.67681143E-16 -1.78234226E-03 -1.83695866E-03
  1.12195866E-03  3.68298431E-04 -4.27541451E-03 -2.10681905E-03  3.12264819E-04
  6.69898758E-04 -4.44172219E-01 -7.24462644E-01  1.61846224E-02  8.96828962E-02
  1.57408474E-02  9.00338101E-02  1.62979718E-02  8.98338438E-02 -9.87657484E-04
 -2.39569554E-03  9.21546479E-03  1.58009557E-02 -1.47272214E-03 -2.20575219E-03
 -9.28815017E-04 -2.25526997E-03 -1.05362928E-17 -9.17894621E-18 -8.89433634E-17
 -9.33575853E-17 -1.56415382E-02 -8.98307250E-02 -1.61994864E-02 -8.99375719E-02
  4.44269892E-01  7.25057116E-01 -1.59877836E-02 -9.01865033E-02  2.56802819E-03
  3.36708377E-03  6.59800759E-04  4.01116477E-03 -9.47749371E-03 -2.18154121E-02
 -5.28578762E-03 -2.93530308E-04 -1.09938742E-03 -6.12701692E-04  6.91097334E-04
  9.17415853E-04  2.49074806E-03  1.74526751E-03  1.76646812E-03  1.56021170E-03
  5.56557975E-17  4.83007667E-17  2.69134446E-17  1.82547540E-17 -1.69599028E-02
 -9.03364721E-02  4.43685491E-01  7.24290748E-01 -1.66582473E-02 -9.00851373E-02
 -1.59597912E-02 -8.97627495E-02 -1.09118417E-03 -3.10918313E-04 -7.58277204E-04
 -5.12542655E-04  5.88166062E-03  4.11339330E-03  8.74603428E-04 -5.10865234E-04
 -8.72709051E-04 -6.42825343E-04  9.07868411E-04 -9.13838238E-05  2.48479738E-03
  1.90835390E-03  5.36716859E-04  2.04552964E-03  3.31751666E-17  2.87768974E-17
 -1.12498043E-16 -1.04029485E-16 -9.76634596E-04 -2.59044408E-03 -1.84655324E-04
  1.23885060E-04  4.28813577E-03  1.45633043E-03 -1.04658854E-03  4.97051089E-04
  1.65241506E-02  8.99147245E-02  1.59139038E-02  9.00769734E-02  1.64054701E-02
  9.03016582E-02 -4.43538198E-01 -7.24430399E-01  6.71802215E-04  4.81230012E-04
 -3.48185355E-03 -4.49677548E-03 -3.95335663E-04  8.24010635E-04  5.45625834E-04
  5.12864366E-04  2.56522274E-17  2.22687714E-17 -3.23230643E-16 -2.96800024E-16
  8.73930639E-03  2.02427905E-02 -1.47734308E-03 -2.77545800E-03 -1.39517401E-03
 -2.62103500E-03  6.54253359E-04 -3.56698105E-03 -2.20576921E-03 -1.78480018E-03
  3.07494992E-04  5.16366357E-04  1.22920779E-03 -1.89372474E-03 -2.22701000E-04
  8.09536754E-04  1.63037172E-02  8.95466104E-02  1.58781129E-02  9.04268099E-02
 -4.43957509E-01 -7.25046370E-01  1.52814048E-02  8.99145255E-02 -1.04342011E-16
 -9.05224298E-17  2.48264991E-16  2.25585083E-16 -9.75847140E-03 -1.53077539E-02
  3.62162575E-03  5.85316850E-03 -9.85743280E-03 -2.09036617E-02 -2.30671755E-05
  5.87368227E-03 -1.51690441E-02 -8.99506802E-02 -1.62425101E-02 -9.00517397E-02
  4.45806405E-01  7.26304548E-01 -1.56644685E-02 -9.02596961E-02  2.43549373E-03
  3.44187728E-03 -1.00046168E-02 -2.46949465E-02 -2.34738670E-03  2.94872300E-03
  2.21532126E-04  3.81988061E-03  4.04739822E-17  3.51042553E-17  3.14894568E-16
  2.88583851E-16 -4.45515967E-01 -7.25399010E-01  1.62148058E-02  9.00520509E-02
  1.53360621E-02  8.95380891E-02  1.59444899E-02  9.01991523E-02 -6.94360771E-04
 -2.71044898E-03 -1.68189483E-03 -2.17907103E-03  8.71412765E-03  1.72961422E-02
 -5.43727972E-04 -2.82648903E-03 -4.76856437E-03 -6.05348922E-03  4.31401280E-03
  1.01262255E-03  9.76084900E-03  1.72730591E-02  9.27755375E-03  1.42599757E-02
  8.69076483E-17  7.53847874E-17  1.21814196E-17  1.76795630E-17 -2.37869382E-03
 -3.68640857E-03  5.16073275E-04  3.43421378E-04  2.23286871E-04  1.55399509E-03
  6.06713384E-04  3.10892199E-04 -1.01933609E-02 -1.37953121E-02  3.22626611E-03
  6.04573983E-03 -1.07898842E-02 -2.33609550E-02  1.40504690E-03  6.11235260E-03
 -1.62023434E-02 -9.00830372E-02  4.45149324E-01  7.25526640E-01 -1.57075692E-02
 -9.01897001E-02 -1.59422291E-02 -8.99860638E-02  7.78911448E-17  6.75678032E-17
 -1.44845681E-16 -1.33929987E-16 -6.45128021E-01  6.46989981E-01  2.90473051E-01
 -3.61125433E-01 -1.25328446E-01  7.70134628E-02  1.55526439E-01 -2.10008578E-01
 -4.91709849E-02  7.81077454E-03  2.68086230E-01 -3.34073319E-01 -6.42274227E-01
  6.39183502E-01  1.20608201E-01 -1.68875181E-01  4.26033823E-01 -5.25795803E-01
 -4.43014052E-01  4.07626993E-01 -2.67263387E-01  2.23685265E-01 -1.54732795E-01
  1.02122900E-01  4.10328255E-16 -4.22993399E-16  4.39737987E-16 -4.55386232E-16
 -2.39118214E-01  2.34641833E-01  1.81811403E-01 -2.28955445E-01 -2.56634552E-01
  2.69220522E-01  1.48695191E-01 -1.90873845E-01  7.59709888E-01 -8.34604426E-01
 -2.23620315E-01  2.71510483E-01 -5.33712125E-02  9.11956698E-02 -3.43181586E-01
  4.07935697E-01 -5.75983179E-03  8.37859738E-03  6.54460222E-01 -7.31022711E-01
 -3.27520386E-01  3.68221523E-01 -3.08576562E-01  3.47946136E-01 -2.28340571E-16
  2.09241655E-16  9.09081977E-16 -9.71981859E-16  4.05559243E-01 -4.71482776E-01
  2.22686942E-01 -2.70464732E-01 -7.89325812E-01  8.81941157E-01  6.44134543E-02
 -8.76690365E-02  1.46805727E-01 -2.11857865E-01  2.90343788E-01 -3.69707494E-01
 -3.75217044E-01  3.66440882E-01 -3.44563129E-01  3.59428799E-01 -3.06319405E-01
  3.75880295E-01 -1.87932204E-01  2.33812419E-01  3.01452247E-01 -3.08359980E-01
  3.73361284E-01 -3.93460233E-01 -1.15419455E-16  1.21163628E-16  1.62586653E-16
 -3.78141884E-16  7.18128510E-02 -8.91149955E-02  4.84647818E-01 -5.70484718E-01
  1.00950350E-01 -1.24928409E-01 -6.64349531E-01  7.83500728E-01  1.31415799E-01
 -1.46160059E-01 -2.78543702E-01  3.34873819E-01 -1.58973171E-01  2.04112663E-01
  3.64051158E-01 -4.21739163E-01 -1.37125304E-01  1.65862700E-01  5.20048996E-02
 -6.09838279E-02 -5.06389289E-01  6.04174979E-01  6.22576838E-01 -7.26490687E-01
 -6.10062922E-16  5.52390819E-16 -3.10214357E-16  3.20858307E-16  6.11919308E-02
 -7.63439438E-02 -9.52953136E-02  1.12999468E-01 -1.89910957E-01  2.13162722E-01
  2.05407632E-01 -2.45579877E-01  2.32814233E-01 -2.91960678E-01 -7.07957211E-01
  8.31922214E-01 -3.57834725E-01  4.04096418E-01  7.41671894E-01 -8.96027691E-01
 -1.50062775E-01  1.78824220E-01 -9.52727748E-02  1.04641871E-01  4.63963929E-01
 -5.50013712E-01 -2.21399988E-01  2.66379138E-01 -4.13138338E-16  3.87199515E-16
 -1.62315096E-16  1.88543768E-16  2.17385574E-03  1.90732475E-03  6.35838336E-01
 -7.58001482E-01  5.58563324E-02 -6.33263925E-02 -6.82821436E-01  8.15561743E-01
 -4.49868819E-02  5.62969088E-02  9.92016602E-02 -1.16629421E-01  6.60828948E-02
 -7.27367016E-02 -1.02939380E-01  1.25107307E-01  5.06258436E-02 -5.99520318E-02
  2.33050656E-02 -2.55989128E-02  5.64711505E-01 -6.73177115E-01 -6.33366042E-01
  7.56284921E-01  5.50128341E-16 -5.95520064E-16 -1.47820156E-16  7.01228264E-17
 -4.14773302E-01  5.09944143E-01 -3.09503700E-02  3.79465423E-02  3.78159088E-01
 -4.75201461E-01  5.92250792E-02 -7.22845792E-02  1.06761680E-01 -4.57937208E-02
  4.61316979E-01 -4.86807994E-01 -2.00873450E-01  3.37489630E-01  1.60619669E-01
 -1.16940248E-01 -1.02432204E+00  1.11891360E+00  9.11543744E-02 -2.63153758E-01
  7.45115864E-02 -2.42024124E-01 -5.84710467E-02 -7.67618497E-02  6.69364633E-16
 -6.80533588E-16  7.70958744E-16 -8.96661756E-16  8.67442703E-02 -2.36798626E-01
 -6.83404614E-01  7.21279981E-01  3.27445835E-01 -5.43890747E-01 -5.36011707E-01
  5.39900770E-01  6.67864889E-01 -7.89502607E-01  1.67154738E-01 -1.65071385E-01
 -3.85227479E-01  5.28990411E-01 -1.77573946E-01  2.61220969E-01  2.56971372E-01
 -2.70431208E-01 -2.25942630E-01  3.25505976E-01  2.01696476E-01 -1.94283354E-01
  8.00470983E-02 -4.54463693E-02  6.74447417E-16 -6.82845451E-16 -8.72000543E-16
  7.80377696E-16  3.20721492E-01 -4.96505755E-01 -2.70706944E-01  2.65306779E-01
 -3.49513571E-01  3.51113872E-01 -1.94201017E-01  1.70067697E-01 -1.41604237E-01
  3.45350586E-01  6.39107591E-01 -6.44320099E-01 -1.48051798E-01  3.65117249E-01
  6.58084115E-01 -6.69749189E-01  1.92566718E-01 -1.92203849E-01  5.90937819E-01
 -7.07685825E-01 -2.14126138E-01  3.29708985E-01 -2.58227289E-01  3.82381261E-01