                  Welcome to Q-Chem
     A Quantum Leap Into The Future Of Chemistry


 Q-Chem 4.3, Q-Chem, Inc., Pleasanton, CA (2015)

 Y. Shao,  Z. Gan,  E. Epifanovsky,  A. T. B. Gilbert,  M. Wormit,  
 J. Kussmann,  A. W. Lange,  A. Behn,  J. Deng,  X. Feng,  D. Ghosh,  
 M. Goldey,  P. R. Horn,  L. D. Jacobson,  I. Kaliman,  R. Z. Khaliullin,  
 T. Kus,  A. Landau,  J. Liu,  E. I. Proynov,  Y. M. Rhee,  R. M. Richard,  
 M. A. Rohrdanz,  R. P. Steele,  E. J. Sundstrom,  H. L. Woodcock III,  
 P. M. Zimmerman,  D. Zuev,  B. Albrecht,  E. Alguire,  B. Austin,  
 S. A. Baeppler,  G. J. O. Beran,  Y. A. Bernard,  E. Berquist,  
 K. Brandhorst,  K. B. Bravaya,  S. T. Brown,  D. Casanova,  C.-M. Chang,  
 Y. Chen,  S. H. Chien,  K. D. Closser,  D. L. Crittenden,  M. Diedenhofen,  
 R. A. DiStasio Jr.,  H. Do,  A. D. Dutoi,  R. G. Edgar,  P.-T. Fang,  
 S. Fatehi,  Q. Feng,  L. Fusti-Molnar,  A. Ghysels,  
 A. Golubeva-Zadorozhnaya,  J. Gomes,  A. Gunina,  M. W. D. Hanson-Heine,  
 P. H. P. Harbach,  A. W. Hauser,  E. G. Hohenstein,  Z. C. Holden,  K. Hui,  
 T.-C. Jagau,  H. Ji,  B. Kaduk,  K. Khistyaev,  Jaehoon Kim,  Jihan Kim,  
 R. A. King,  P. Klunzinger,  D. Kosenkov,  T. Kowalczyk,  C. M. Krauter,  
 K. U. Lao,  A. Laurent,  K. V. Lawler,  S. Lehtola,  S. V. Levchenko,  
 C. Y. Lin,  Y.-S. Lin,  F. Liu,  E. Livshits,  R. C. Lochan,  A. Luenser,  
 P. Manohar,  S. F. Manzer,  S.-P. Mao,  N. Mardirossian,  A. V. Marenich,  
 L. A. Martinez-Martinez,  S. A. Maurer,  N. J. Mayhall,  K. Nanda,  
 C. M. Oana,  R. Olivares-Amaya,  D. P. O'Neill,  J. A. Parkhill,  
 T. M. Perrine,  R. Peverati,  P. A. Pieniazek,  F. Plasser,  A. Prociuk,  
 D. R. Rehn,  E. Rosta,  N. J. Russ,  N. Sergueev,  S. M. Sharada,  
 S. Sharma,  D. W. Small,  A. Sodt,  T. Stauch,  T. Stein,  D. Stuck,  
 Y.-C. Su,  A. J. W. Thom,  T. Tsuchimochi,  L. Vogt,  O. Vydrov,  T. Wang,  
 M. A. Watson,  J. Wenzel,  A. White,  C. F. Williams,  V. Vanovschi,  
 S. Yeganeh,  S. R. Yost,  Z.-Q. You,  I. Y. Zhang,  X. Zhang,  Y. Zhao,  
 B. R. Brooks,  G. K. L. Chan,  D. M. Chipman,  C. J. Cramer,  
 W. A. Goddard III,  M. S. Gordon,  W. J. Hehre,  A. Klamt,  
 H. F. Schaefer III,  M. W. Schmidt,  C. D. Sherrill,  D. G. Truhlar,  
 A. Warshel,  X. Xu,  A. Aspuru-Guzik,  R. Baer,  A. T. Bell,  N. A. Besley,  
 J.-D. Chai,  A. Dreuw,  B. D. Dunietz,  T. R. Furlani,  S. R. Gwaltney,  
 C.-P. Hsu,  Y. Jung,  J. Kong,  D. S. Lambrecht,  W. Liang,  C. Ochsenfeld,  
 V. A. Rassolov,  L. V. Slipchenko,  J. E. Subotnik,  T. Van Voorhis,  
 J. M. Herbert,  A. I. Krylov,  P. M. W. Gill,  M. Head-Gordon

 Contributors to earlier versions of Q-Chem not listed above: 
 R. D. Adamson,  J. Baker,  E. F. C. Byrd,  A. K. Chakraborty,  C.-L. Cheng,  
 H. Dachsel,  R. J. Doerksen,  G. Hawkins,  A. Heyden,  S. Hirata,  
 G. Kedziora,  F. J. Keil,  C. Kelley,  P. P. Korambath,  W. Kurlancheek,  
 A. M. Lee,  M. S. Lee,  D. Liotard,  I. Lotan,  P. E. Maslen,  N. Nair,  
 D. Neuhauser,  R. Olson,  B. Peters,  J. Ritchie,  N. E. Schultz,  
 N. Shenvi,  A. C. Simmonett,  K. S. Thanthiriwatte,  Q. Wu,  W. Zhang

 Please cite Q-Chem as follows:
 Y. Shao et al., Mol. Phys. 113, 184-215 (2015)
 DOI: 10.1080/00268976.2014.952696

 Q-Chem 4.3.0 for Intel X86 EM64T Linux

 Parts of Q-Chem use Armadillo 5.200.1 (Boston Tea Smuggler).
 http://arma.sourceforge.net/

 Q-Chem begins on Mon Mar 20 16:10:59 2017  


Host: 0

     Scratch files written to /home/nmayhall/scratch_qchem/02//
 Dec1416 |home|nmayhall|qcSoftware|qchem|qchem.svn-casman|libmdc|qstr_RNUM -1
 Using version located at /home/nmayhall/qcSoftware/qchem/qchem.svn-casman/bin/qchem


Total Memory Limit in MB = 2000
Mega-Array Size in MB = 62

Checking the input file for inconsistencies... 	...done.

 Q-Chem warning in module /home/nmayhall/qcSoftware/qchem/qchem.svn-casman/forms1/BasisType.C, line 1452:

 You are not using the predefined 5D/6D in this basis set.

Finally everything over in PARseQInput

--------------------------------------------------------------
User input:
--------------------------------------------------------------
$rem
	exchange 		hf
	unrestricted		1
	basis			6-31g*	
	aux_basis		rimp2-vdz
	scf_guess		core	
	scf_convergence		8
	purecart		1111

	symmetry		0
	sym_ignore		1

	!correlation		sf-cas
	!cas_n_spin_flip		1
	!cas_local		1
	gui			2
$end

$development
	1sf_heis_projection	1
$end

$molecule
0 13
H         -0.73854       -0.54065        0.08576
H         -2.31340       -1.01748       -0.67017
H         -2.09582        0.65549       -0.01146
H         -2.21044       -0.75437        1.11995
H	1.47674	3.27203	0.09828
H	0.1685	3.86022	1.20546
H	0.18287	2.1348	0.65668
H	-0.21686	3.45528	-0.51743
H          3.48850       -0.87553       -0.06084
H          2.29649        0.48578       -0.00191
H          1.93960       -1.06676        0.85992
H          1.91588       -1.00965       -0.95022
He	10	10	10	
He	-10	10	10	
$end


--------------------------------------------------------------
 ----------------------------------------------------------------
             Standard Nuclear Orientation (Angstroms)
    I     Atom           X                Y                Z
 ----------------------------------------------------------------
    1      H      -0.7385400000    -0.5406500000     0.0857600000
    2      H      -2.3134000000    -1.0174800000    -0.6701700000
    3      H      -2.0958200000     0.6554900000    -0.0114600000
    4      H      -2.2104400000    -0.7543700000     1.1199500000
    5      H       1.4767400000     3.2720300000     0.0982800000
    6      H       0.1685000000     3.8602200000     1.2054600000
    7      H       0.1828700000     2.1348000000     0.6566800000
    8      H      -0.2168600000     3.4552800000    -0.5174300000
    9      H       3.4885000000    -0.8755300000    -0.0608400000
   10      H       2.2964900000     0.4857800000    -0.0019100000
   11      H       1.9396000000    -1.0667600000     0.8599200000
   12      H       1.9158800000    -1.0096500000    -0.9502200000
   13      He     10.0000000000    10.0000000000    10.0000000000
   14      He    -10.0000000000    10.0000000000    10.0000000000
 ----------------------------------------------------------------
 Nuclear Repulsion Energy =    12.8359554527 hartrees
 There are       14 alpha and        2 beta electrons
 Requested basis set is 6-31G(d)
 There are 28 shells and 28 basis functions

Total QAlloc Memory Limit   2000 MB
Mega-Array Size        61 MB
MEM_STATIC part        62 MB

finished with qalloc call

                       Distance Matrix (Angstroms)
             H (  1)   H (  2)   H (  3)   H (  4)   H (  5)   H (  6)
   H (  2)  1.810796
   H (  3)  1.811743  1.811096
   H (  4)  1.811550  1.812280  1.811334
   H (  5)  4.409552  5.775428  4.429617  5.554368
   H (  6)  4.630778  5.785307  4.108325  5.192409  1.811990
   H (  7)  2.886690  4.234237  2.797713  3.780192  1.810857  1.810646
   H (  8)  4.074732  4.942104  3.409592  4.937259  1.811342  1.811306
   H (  9)  4.242818  5.835536  5.790604  5.821242  4.612456  5.920578
   H ( 10)  3.205098  4.894635  4.395598  4.807178  2.906066  4.168085
   H ( 11)  2.836997  4.520134  4.473261  4.169896  4.429383  5.247030
   H ( 12)  2.887761  4.238549  4.443838  4.623558  4.430009  5.604991
   He( 13) 18.019814 19.668686 18.271783 18.536629 14.695428 14.549887
   He( 14) 17.180573 17.155792 15.812187 15.974636 16.583884 14.779690
             H (  7)   H (  8)   H (  9)   H ( 10)   H ( 11)   H ( 12)
   H (  8)  1.811625
   H (  9)  4.528147  5.717874
   H ( 10)  2.760507  3.924362  1.810394
   H ( 11)  3.657512  5.195792  1.812032  1.811216
   H ( 12)  3.933576  4.967040  1.811662  1.811206  1.811196
   He( 13) 15.669558 16.057208 16.183241 15.808310 16.461600 17.506362
   He( 14) 15.901253 15.784788 20.035900 18.486813 18.669984 19.573143
             He( 13)
   He( 14) 20.000000


 Q-Chem warning in module /home/nmayhall/qcSoftware/qchem/qchem.svn-casman/forms1/BasisType.C, line 1375:

 SAD: How to set up polarization functions for non-Pople basis?

 Requested basis set is rimp2-VDZ
 There are 82 shells and 186 basis functions
 Job number = 2, Threshold = 1.00E-11
Integral type ranges set in mkLRange.C for JobNum: 2  <1-7|1-7>
Symmetry turned off temporarily
 Using the largest function pair in Schwarz integrals
Total number of integrals generated =            1012
Symmetry turned back on
 A cutoff of  1.0D-11 yielded    286 shell pairs
 There are       286 function pairs
 Job number = 11, Threshold = 1.00E-11
Integral type ranges set in mkLRange.C for JobNum: 11  <1-1|8-8>

 -------------------------------------------------------
 OpenMP Integral Computing Module                       
 Release: version 1.0, May 2013, Q-Chem Inc. Pittsburgh 
 -------------------------------------------------------
 Integral Job Info:
 Integral job number is                      11
 Integral operator is                         1
 short-range coefficients                     0
 long-range coefficients              100000000
 Omega coefficients                           0
 if combine SR and LR in K                    0
 Integral screening is                        0
 Integral computing path is                   2
 max size of driver memory is            800000
 size of driver memory is                 11780
 size of scratch memory is               800000
 max col of scratch BK array                289
 max len of scratch array in speh3            1
 max len of scratch index in speh4            2
 max int batch size is                      520
 min int batch size is                       52
 fixed nKL is                               520
 max L of basis functions is                  0
 order of int derivative is                   0
 number of shells is                         28
 number of basis is                          28
 number of cartesian basis is                28
 number of contracted shell pairs           286
 number of primitive shell pairs            810
 maxK2 (contraction) of shell pair            9
 max number of K2 of shell pair               1
 max number of CS2 of shell pair            147
 max number of PS2 of shell pair            441
 mem total for path MDJ                    6780
 -------------------------------------------------------
 Smallest overlap matrix eigenvalue = 1.94E-01
 Multipole matrices computed through 2nd order

  Scale SEOQF with 1.000000e-02/1.000000e-02/1.000000e-02

 Standard Electronic Orientation quadrupole field applied
 Nucleus-field energy     =     0.0000000004 hartrees
GuessMan:  IGuess = 1
 Guess MOs from core Hamiltonian diagonalization
scfman initvdwdat 
 An unrestricted Hartree-Fock SCF calculation will be
 performed using Pulay DIIS extrapolation
 SCF converges when DIIS error is below 1.0E-08
Finding J and K together
 Job number = 22, Threshold = 1.00E-11
Integral type ranges set in mkLRange.C for JobNum: 22  <1-1|1-1>
Storing 4430.16% of integrals
Total number of integrals generated =           37448
 MakeJK  time:  CPU       0.01 s  wall       0.01 s
Fock build time:  0.01 s (CPU) 0.01 s (wall)
DIIS Errors:  Max 3.56E-01 RMS 3.03E-02

Current DIIS subspace size = 1
REM_GRID_RESTART_DIIS = 0

 ---------------------------------------
  Cycle       Energy         DIIS Error
 ---------------------------------------
    1      -9.4584461044      3.03E-02  00000
Finding J and K together
 Job number = 22, Threshold = 1.00E-11
Integral type ranges set in mkLRange.C for JobNum: 22  <1-1|1-1>
Storing 4430.16% of integrals
Reusing in-core integrals buffer for job 22
 MakeJK  time:  CPU       0.00 s  wall       0.00 s
Fock build time:  0.00 s (CPU) 0.00 s (wall)
DIIS Errors:  Max 2.54E-01 RMS 1.94E-02

Current DIIS subspace size = 2
REM_GRID_RESTART_DIIS = 0

    2     -11.3669231749      1.94E-02  00000
Finding J and K together
 Job number = 22, Threshold = 1.00E-11
Integral type ranges set in mkLRange.C for JobNum: 22  <1-1|1-1>
Storing 4430.16% of integrals
Reusing in-core integrals buffer for job 22
 MakeJK  time:  CPU       0.00 s  wall       0.00 s
Fock build time:  0.00 s (CPU) 0.00 s (wall)
DIIS Errors:  Max 1.06E-01 RMS 8.37E-03

Current DIIS subspace size = 3
REM_GRID_RESTART_DIIS = 0

    3     -11.4361415812      8.37E-03  00000
Finding J and K together
 Job number = 22, Threshold = 1.00E-11
Integral type ranges set in mkLRange.C for JobNum: 22  <1-1|1-1>
Storing 4430.16% of integrals
Reusing in-core integrals buffer for job 22
 MakeJK  time:  CPU       0.00 s  wall       0.00 s
Fock build time:  0.00 s (CPU) 0.00 s (wall)
DIIS Errors:  Max 9.60E-03 RMS 9.39E-04

Current DIIS subspace size = 4
REM_GRID_RESTART_DIIS = 0

    4     -11.4664819899      9.39E-04  00000
Finding J and K together
 Job number = 22, Threshold = 1.00E-11
Integral type ranges set in mkLRange.C for JobNum: 22  <1-1|1-1>
Storing 4430.16% of integrals
Reusing in-core integrals buffer for job 22
 MakeJK  time:  CPU       0.00 s  wall       0.00 s
Fock build time:  0.00 s (CPU) 0.00 s (wall)
DIIS Errors:  Max 1.41E-04 RMS 1.10E-05

Current DIIS subspace size = 5
REM_GRID_RESTART_DIIS = 0

    5     -11.4691443868      1.10E-05  00000
Finding J and K together
 Job number = 22, Threshold = 1.00E-11
Integral type ranges set in mkLRange.C for JobNum: 22  <1-1|1-1>
Storing 4430.16% of integrals
Reusing in-core integrals buffer for job 22
 MakeJK  time:  CPU       0.00 s  wall       0.00 s
Fock build time:  0.00 s (CPU) 0.00 s (wall)
DIIS Errors:  Max 1.20E-05 RMS 9.13E-07

Current DIIS subspace size = 6
REM_GRID_RESTART_DIIS = 0

    6     -11.4692516861      9.13E-07  00000
Finding J and K together
 Job number = 22, Threshold = 1.00E-11
Integral type ranges set in mkLRange.C for JobNum: 22  <1-1|1-1>
Storing 4430.16% of integrals
Reusing in-core integrals buffer for job 22
 MakeJK  time:  CPU       0.00 s  wall       0.00 s
Fock build time:  0.00 s (CPU) 0.00 s (wall)
DIIS Errors:  Max 8.39E-07 RMS 6.69E-08

Current DIIS subspace size = 7
REM_GRID_RESTART_DIIS = 0

    7     -11.4692680198      6.69E-08  00000
Finding J and K together
 Job number = 22, Threshold = 1.00E-11
Integral type ranges set in mkLRange.C for JobNum: 22  <1-1|1-1>
Storing 4430.16% of integrals
Reusing in-core integrals buffer for job 22
 MakeJK  time:  CPU       0.00 s  wall       0.00 s
Fock build time:  0.00 s (CPU) 0.00 s (wall)
DIIS Errors:  Max 1.08E-07 RMS 8.66E-09

Current DIIS subspace size = 8
REM_GRID_RESTART_DIIS = 0

    8     -11.4692711025      8.66E-09  00000 Convergence criterion met
 ---------------------------------------
 <S^2> = 42.0000
 SCF time:  CPU 0.04 s  wall 0.04 s
 SCF   energy in the final basis set = -11.4692711025
 Total energy in the final basis set = -11.4692711025
Symmetry turned off temporarily
 Analysis of SCF Wavefunction

 --------------------------------------------------------------

                    Orbital Energies (a.u.)
 --------------------------------------------------------------

 Alpha MOs
 -- Occupied --
 -0.914  -0.914  -0.713  -0.698  -0.698  -0.476  -0.468  -0.464
 -0.455  -0.453  -0.452  -0.442  -0.440  -0.431
 -- Virtual --
  0.812   0.856   0.866   0.902   0.924   0.928   0.974   0.986
  1.008   1.056   1.155   1.178   1.400   1.400

 Beta MOs
 -- Occupied --
 -0.914  -0.914
 -- Virtual --
 -0.055  -0.033  -0.033   0.130   0.142   0.146   0.159   0.165
  0.167   0.187   0.191   0.206   1.040   1.073   1.081   1.109
  1.127   1.130   1.172   1.182   1.203   1.259   1.351   1.371
  1.400   1.400
 --------------------------------------------------------------

          Ground-State Mulliken Net Atomic Charges

     Atom                 Charge (a.u.)    Spin (a.u.)
  --------------------------------------------------------
      1 H                     0.000058       0.999942
      2 H                     0.000040       0.999960
      3 H                    -0.000019       1.000019
      4 H                     0.000001       0.999999
      5 H                    -0.000037       1.000037
      6 H                     0.000033       0.999967
      7 H                     0.000032       0.999968
      8 H                    -0.000043       1.000043
      9 H                     0.000072       0.999928
     10 H                     0.000034       0.999966
     11 H                    -0.000087       1.000087
     12 H                    -0.000083       1.000083
     13 He                    0.000000      -0.000000
     14 He                    0.000000      -0.000000
  --------------------------------------------------------
  Sum of atomic charges =    -0.000000
  Sum of spin   charges =    12.000000

 -----------------------------------------------------------------
                    Cartesian Multipole Moments
 -----------------------------------------------------------------
    Charge (ESU x 10^10)
                -0.0000
    Dipole Moment (Debye)
         X      -0.0000      Y      -0.0005      Z       0.0004
       Tot       0.0006
    Quadrupole Moments (Debye-Ang)
        XX     -19.6654     XY       0.0187     YY     -19.6151
        XZ      -0.0009     YZ      -0.0262     ZZ     -19.5108
    Octopole Moments (Debye-Ang^2)
       XXX     -19.5426    XXY     -32.7525    XYY      -4.8610
       YYY    -101.4551    XXZ     -22.8936    XYZ      -0.0169
       YYZ     -23.8685    XZZ      -4.1069    YZZ     -32.7522
       ZZZ     -70.7104
    Hexadecapole Moments (Debye-Ang^3)
      XXXX   -1643.0795   XXXY      -9.2803   XXYY    -555.1041
      XYYY      -8.3366   YYYY   -1675.6787   XXXZ       3.4366
      XXYZ    -213.8387   XYYZ       0.0861   YYYZ    -649.8175
      XXZZ    -491.0236   XYZZ      -2.6417   YYZZ    -504.7970
      XZZZ       4.4640   YZZZ    -645.1360   ZZZZ   -1318.2305
 -----------------------------------------------------------------
 JobOver = TRUE
Archival summary:
1\1\sinatra\SP\HF\6-31G*\e212()\nmayhall\MonMar2016:11:002017MonMar2016:11:002017\0\\#,HF,6-31G*,\\0,13\H\H,1,1.81065\H,1,1.81086,2,60.0452\H,2,1.81131,1,60.0237,3,-70.5123,0\H,1,2.76051,2,130.363,3,-30.4932,0\H,5,1.81039,1,163.962,2,-121.253,0\H,5,1.81121,1,117.208,2,162.903,0\H,7,1.8112,5,60.0005,1,91.4164,0\H,1,2.79771,2,124.735,3,141.325,0\H,9,1.8111,1,132.31,2,-175.664,0\H,10,1.8108,9,60.0291,1,-17.4875,0\H,9,1.81133,1,108.296,2,118.561,0\He,2,14.5499,1,125.447,3,67.3478,0\He,2,14.7797,1,125.568,3,-178.866,0\\HF=-11.4692711\\@

 Total job time:  0.10s(wall), 0.10s(cpu) 
 Mon Mar 20 16:11:00 2017

        *************************************************************
        *                                                           *
        *  Thank you very much for using Q-Chem.  Have a nice day.  *
        *                                                           *
        *************************************************************


*** MISSION COMPLETED -- STARFLEET OUT ***

 
User input: 2 of 2 
 
                  Welcome to Q-Chem
     A Quantum Leap Into The Future Of Chemistry


 Q-Chem 4.3, Q-Chem, Inc., Pleasanton, CA (2015)

 Y. Shao,  Z. Gan,  E. Epifanovsky,  A. T. B. Gilbert,  M. Wormit,  
 J. Kussmann,  A. W. Lange,  A. Behn,  J. Deng,  X. Feng,  D. Ghosh,  
 M. Goldey,  P. R. Horn,  L. D. Jacobson,  I. Kaliman,  R. Z. Khaliullin,  
 T. Kus,  A. Landau,  J. Liu,  E. I. Proynov,  Y. M. Rhee,  R. M. Richard,  
 M. A. Rohrdanz,  R. P. Steele,  E. J. Sundstrom,  H. L. Woodcock III,  
 P. M. Zimmerman,  D. Zuev,  B. Albrecht,  E. Alguire,  B. Austin,  
 S. A. Baeppler,  G. J. O. Beran,  Y. A. Bernard,  E. Berquist,  
 K. Brandhorst,  K. B. Bravaya,  S. T. Brown,  D. Casanova,  C.-M. Chang,  
 Y. Chen,  S. H. Chien,  K. D. Closser,  D. L. Crittenden,  M. Diedenhofen,  
 R. A. DiStasio Jr.,  H. Do,  A. D. Dutoi,  R. G. Edgar,  P.-T. Fang,  
 S. Fatehi,  Q. Feng,  L. Fusti-Molnar,  A. Ghysels,  
 A. Golubeva-Zadorozhnaya,  J. Gomes,  A. Gunina,  M. W. D. Hanson-Heine,  
 P. H. P. Harbach,  A. W. Hauser,  E. G. Hohenstein,  Z. C. Holden,  K. Hui,  
 T.-C. Jagau,  H. Ji,  B. Kaduk,  K. Khistyaev,  Jaehoon Kim,  Jihan Kim,  
 R. A. King,  P. Klunzinger,  D. Kosenkov,  T. Kowalczyk,  C. M. Krauter,  
 K. U. Lao,  A. Laurent,  K. V. Lawler,  S. Lehtola,  S. V. Levchenko,  
 C. Y. Lin,  Y.-S. Lin,  F. Liu,  E. Livshits,  R. C. Lochan,  A. Luenser,  
 P. Manohar,  S. F. Manzer,  S.-P. Mao,  N. Mardirossian,  A. V. Marenich,  
 L. A. Martinez-Martinez,  S. A. Maurer,  N. J. Mayhall,  K. Nanda,  
 C. M. Oana,  R. Olivares-Amaya,  D. P. O'Neill,  J. A. Parkhill,  
 T. M. Perrine,  R. Peverati,  P. A. Pieniazek,  F. Plasser,  A. Prociuk,  
 D. R. Rehn,  E. Rosta,  N. J. Russ,  N. Sergueev,  S. M. Sharada,  
 S. Sharma,  D. W. Small,  A. Sodt,  T. Stauch,  T. Stein,  D. Stuck,  
 Y.-C. Su,  A. J. W. Thom,  T. Tsuchimochi,  L. Vogt,  O. Vydrov,  T. Wang,  
 M. A. Watson,  J. Wenzel,  A. White,  C. F. Williams,  V. Vanovschi,  
 S. Yeganeh,  S. R. Yost,  Z.-Q. You,  I. Y. Zhang,  X. Zhang,  Y. Zhao,  
 B. R. Brooks,  G. K. L. Chan,  D. M. Chipman,  C. J. Cramer,  
 W. A. Goddard III,  M. S. Gordon,  W. J. Hehre,  A. Klamt,  
 H. F. Schaefer III,  M. W. Schmidt,  C. D. Sherrill,  D. G. Truhlar,  
 A. Warshel,  X. Xu,  A. Aspuru-Guzik,  R. Baer,  A. T. Bell,  N. A. Besley,  
 J.-D. Chai,  A. Dreuw,  B. D. Dunietz,  T. R. Furlani,  S. R. Gwaltney,  
 C.-P. Hsu,  Y. Jung,  J. Kong,  D. S. Lambrecht,  W. Liang,  C. Ochsenfeld,  
 V. A. Rassolov,  L. V. Slipchenko,  J. E. Subotnik,  T. Van Voorhis,  
 J. M. Herbert,  A. I. Krylov,  P. M. W. Gill,  M. Head-Gordon

 Contributors to earlier versions of Q-Chem not listed above: 
 R. D. Adamson,  J. Baker,  E. F. C. Byrd,  A. K. Chakraborty,  C.-L. Cheng,  
 H. Dachsel,  R. J. Doerksen,  G. Hawkins,  A. Heyden,  S. Hirata,  
 G. Kedziora,  F. J. Keil,  C. Kelley,  P. P. Korambath,  W. Kurlancheek,  
 A. M. Lee,  M. S. Lee,  D. Liotard,  I. Lotan,  P. E. Maslen,  N. Nair,  
 D. Neuhauser,  R. Olson,  B. Peters,  J. Ritchie,  N. E. Schultz,  
 N. Shenvi,  A. C. Simmonett,  K. S. Thanthiriwatte,  Q. Wu,  W. Zhang

 Please cite Q-Chem as follows:
 Y. Shao et al., Mol. Phys. 113, 184-215 (2015)
 DOI: 10.1080/00268976.2014.952696

 Q-Chem 4.3.0 for Intel X86 EM64T Linux

 Parts of Q-Chem use Armadillo 5.200.1 (Boston Tea Smuggler).
 http://arma.sourceforge.net/

 Q-Chem begins on Mon Mar 20 16:11:00 2017  


Host: 0

     Scratch files written to /home/nmayhall/scratch_qchem/02//
 Dec1416 |home|nmayhall|qcSoftware|qchem|qchem.svn-casman|libmdc|qstr_RNUM -1
 Using version located at /home/nmayhall/qcSoftware/qchem/qchem.svn-casman/bin/qchem

 Turning off symmetry for CASMAN

Total Memory Limit in MB = 2000
Mega-Array Size in MB = 62

Checking the input file for inconsistencies... 	...done.

 Q-Chem warning in module /home/nmayhall/qcSoftware/qchem/qchem.svn-casman/forms1/BasisType.C, line 1452:

 You are not using the predefined 5D/6D in this basis set.

Finally everything over in PARseQInput

--------------------------------------------------------------
User input:
--------------------------------------------------------------
$rem
	exchange 		hf
	unrestricted		0
	basis			6-31g*	
	aux_basis		rimp2-vdz
	scf_guess		read	
	scf_convergence		8
	purecart		1111

	symmetry		0
	sym_ignore		1

	correlation		sf-cas
	cas_n_spin_flip		1
	cas_local		1
	gui			2
$end

$development
	1sf_heis_projection	1
	scf_corresponding_orbs	1
$end

$molecule
read
$end

--------------------------------------------------------------
 ----------------------------------------------------------------
             Standard Nuclear Orientation (Angstroms)
    I     Atom           X                Y                Z
 ----------------------------------------------------------------
    1      H      -0.7385400000    -0.5406500000     0.0857600000
    2      H      -2.3134000000    -1.0174800000    -0.6701700000
    3      H      -2.0958200000     0.6554900000    -0.0114600000
    4      H      -2.2104400000    -0.7543700000     1.1199500000
    5      H       1.4767400000     3.2720300000     0.0982800000
    6      H       0.1685000000     3.8602200000     1.2054600000
    7      H       0.1828700000     2.1348000000     0.6566800000
    8      H      -0.2168600000     3.4552800000    -0.5174300000
    9      H       3.4885000000    -0.8755300000    -0.0608400000
   10      H       2.2964900000     0.4857800000    -0.0019100000
   11      H       1.9396000000    -1.0667600000     0.8599200000
   12      H       1.9158800000    -1.0096500000    -0.9502200000
   13      He     10.0000000000    10.0000000000    10.0000000000
   14      He    -10.0000000000    10.0000000000    10.0000000000
 ----------------------------------------------------------------
 Nuclear Repulsion Energy =    12.8359554527 hartrees
 There are       14 alpha and        2 beta electrons
 Requested basis set is 6-31G(d)
 There are 28 shells and 28 basis functions

Total QAlloc Memory Limit   2000 MB
Mega-Array Size        61 MB
MEM_STATIC part        62 MB

finished with qalloc call

                       Distance Matrix (Angstroms)
             H (  1)   H (  2)   H (  3)   H (  4)   H (  5)   H (  6)
   H (  2)  1.810796
   H (  3)  1.811743  1.811096
   H (  4)  1.811550  1.812280  1.811334
   H (  5)  4.409552  5.775428  4.429617  5.554368
   H (  6)  4.630778  5.785307  4.108325  5.192409  1.811990
   H (  7)  2.886690  4.234237  2.797713  3.780192  1.810857  1.810646
   H (  8)  4.074732  4.942104  3.409592  4.937259  1.811342  1.811306
   H (  9)  4.242818  5.835536  5.790604  5.821242  4.612456  5.920578
   H ( 10)  3.205098  4.894635  4.395598  4.807178  2.906066  4.168085
   H ( 11)  2.836997  4.520134  4.473261  4.169896  4.429383  5.247030
   H ( 12)  2.887761  4.238549  4.443838  4.623558  4.430009  5.604991
   He( 13) 18.019814 19.668686 18.271783 18.536629 14.695428 14.549887
   He( 14) 17.180573 17.155792 15.812187 15.974636 16.583884 14.779690
             H (  7)   H (  8)   H (  9)   H ( 10)   H ( 11)   H ( 12)
   H (  8)  1.811625
   H (  9)  4.528147  5.717874
   H ( 10)  2.760507  3.924362  1.810394
   H ( 11)  3.657512  5.195792  1.812032  1.811216
   H ( 12)  3.933576  4.967040  1.811662  1.811206  1.811196
   He( 13) 15.669558 16.057208 16.183241 15.808310 16.461600 17.506362
   He( 14) 15.901253 15.784788 20.035900 18.486813 18.669984 19.573143
             He( 13)
   He( 14) 20.000000


 Q-Chem warning in module /home/nmayhall/qcSoftware/qchem/qchem.svn-casman/forms1/BasisType.C, line 1375:

 SAD: How to set up polarization functions for non-Pople basis?

 Requested basis set is rimp2-VDZ
 There are 82 shells and 186 basis functions
 Job number = 2, Threshold = 1.00E-12
Integral type ranges set in mkLRange.C for JobNum: 2  <1-7|1-7>
Symmetry turned off temporarily
 Using the largest function pair in Schwarz integrals
Total number of integrals generated =            1015
Symmetry turned back on
 A cutoff of  1.0D-12 yielded    289 shell pairs
 There are       289 function pairs
 Job number = 11, Threshold = 1.00E-12
Integral type ranges set in mkLRange.C for JobNum: 11  <1-1|8-8>

 -------------------------------------------------------
 OpenMP Integral Computing Module                       
 Release: version 1.0, May 2013, Q-Chem Inc. Pittsburgh 
 -------------------------------------------------------
 Integral Job Info:
 Integral job number is                      11
 Integral operator is                         1
 short-range coefficients                     0
 long-range coefficients              100000000
 Omega coefficients                           0
 if combine SR and LR in K                    0
 Integral screening is                        0
 Integral computing path is                   2
 max size of driver memory is            800000
 size of driver memory is                 11780
 size of scratch memory is               800000
 max col of scratch BK array                289
 max len of scratch array in speh3            1
 max len of scratch index in speh4            2
 max int batch size is                      520
 min int batch size is                       52
 fixed nKL is                               520
 max L of basis functions is                  0
 order of int derivative is                   0
 number of shells is                         28
 number of basis is                          28
 number of cartesian basis is                28
 number of contracted shell pairs           289
 number of primitive shell pairs            815
 maxK2 (contraction) of shell pair            9
 max number of K2 of shell pair               1
 max number of CS2 of shell pair            148
 max number of PS2 of shell pair            444
 mem total for path MDJ                    6792
 -------------------------------------------------------
 Smallest overlap matrix eigenvalue = 1.94E-01
 Multipole matrices computed through 2nd order

  Scale SEOQF with 1.000000e-02/1.000000e-02/1.000000e-02

 Standard Electronic Orientation quadrupole field applied
 Nucleus-field energy     =     0.0000000004 hartrees
GuessMan:  IGuess = 1000
 Guess MOs from SCF MO coefficient file
 Reading MOs from coefficient file
 Reading MOs from coefficient file
scfman initvdwdat 
 A restricted Hartree-Fock SCF calculation will be
 performed using Geometric Direct Minimization
 SCF converges when RMS gradient is below 1.0E-08
Finding J and K together
 Job number = 22, Threshold = 1.00E-12
Integral type ranges set in mkLRange.C for JobNum: 22  <1-1|1-1>
Storing 4338.82% of integrals
Total number of integrals generated =           38669
 MakeJK  time:  CPU       0.01 s  wall       0.01 s
Fock build time:  0.01 s (CPU) 0.01 s (wall)
 ---------------------------------------
  Cycle       Energy        RMS Gradient
 ---------------------------------------
    1     -11.4692714795      2.53E-04  00000 Normal BFGS step
Finding J and K together
 Job number = 22, Threshold = 1.00E-12
Integral type ranges set in mkLRange.C for JobNum: 22  <1-1|1-1>
Storing 4338.82% of integrals
Reusing in-core integrals buffer for job 22
 MakeJK  time:  CPU       0.00 s  wall       0.00 s
Fock build time:  0.00 s (CPU) 0.00 s (wall)
    2     -11.4692715136      2.38E-09  00000 Convergence criterion met
 ---------------------------------------
 SCF time:  CPU 0.02 s  wall 0.02 s
 Obtaining Corresponding orbitals

 Forming corresponding orbitals block-by-block...
 Size of singly occupied alpha block:      12 : 12.0000
 Size of doubly occupied block:             2 : 2.0000
 Size of singly occupied beta block:        0 : 0.0000
 Size of unoccupied block:                 14 : 14.0000
 Use scf_boys =     0 (Canonical)
                    1 (Boys)
                    2 (Pipek-Mezey)
                    3 (ER)
 Build new fock matrix
 I'm here
 I'm here
 Calling AOints...
 Job number = 22, Threshold = 1.00E-12
Integral type ranges set in mkLRange.C for JobNum: 22  <1-1|1-1>
Storing 4338.82% of integrals
 done.
 E(SCF): disk=    -11.469271513612 current=    -11.469271513612 diff=   1.599e-14
 SCF   energy in the final basis set = -11.4692715136
 Total energy in the final basis set = -11.4692715136
 DevKeyword Parameters: 
 1sf_heis_projection                   1
scf_corresponding_orbs                   1


 ========================================================
                       In SF-CAS-CI                      
 ========================================================
 DevKeyword Parameters: 
 1sf_heis_projection                   1
scf_corresponding_orbs                   1

 Forming orbitals for SF-CAS calculation.
NBas   : 28
NOrb   : 28
NDOcc  : 2
NSOcc  : 12
NDVir  : 14
ISpin  : 0
e_hf: -11.46927151
 Using OPT1 Orbitals: Favg | Favg | Favg 
 A/B mix in Doubly occupied F  : 0.50000000
 A/B mix in Singly occupied F  : 0.50000000
 A/B mix in Doubly unoccupied F: 0.50000000
 Max of F(beta)ds      : 7.728e-16
 Max of F(alpha)sv     : 1.872e-11
 Max of F(average)dv   : 1.368e-10
 Orbital Energies  (D):
    1    -0.91413126    -0.91413126
    2    -0.91412531    -0.91412531
 Orbital Energies  (S):
    3    -0.37010029    -0.37010029
    4    -0.35322147    -0.35322147
    5    -0.35303383    -0.35303383
    6    -0.15172568    -0.15172568
    7    -0.14303371    -0.14303371
    8    -0.13886816    -0.13886816
    9    -0.12889354    -0.12889354
   10    -0.12585343    -0.12585343
   11    -0.12462285    -0.12462285
   12    -0.11148550    -0.11148550
   13    -0.10871492    -0.10871492
   14    -0.09791993    -0.09791993
 Orbital Energies  (V):
   15     0.90411269     0.90411269
   16     0.94414988     0.94414988
   17     0.95341989     0.95341989
   18     0.98606257     0.98606257
   19     1.00676721     1.00676721
   20     1.01097363     1.01097363
   21     1.05601548     1.05601548
   22     1.06813510     1.06813510
   23     1.09023816     1.09023816
   24     1.14450445     1.14450445
   25     1.24121100     1.24121100
   26     1.26263307     1.26263307
   27     1.39985470     1.39985470
   28     1.39986066     1.39986066
 tr(Pa)     :   14.0000000000
 tr(Pb)     :    2.0000000000
 E(core) with new P : -38.76102690
 E(HF) with new P   : -11.46927151
 Difference in Ehf  :   1.2434e-14

 Number of spin flips: 1
 Use cas_local =    0 (Canonical)
                    1 (Boys)
                    2 (Pipek-Mezey)
                    3 (ER)
 Using Boys orbitals in casman
 
 
 
Calling Get_Boys in C++
 
 
 
Orbital 8 Variance 20.61164193
Orbital 9 Variance 22.14559810
Orbital 12 Variance 22.59651982
Orbital 5 Variance 23.26067160
Orbital 2 Variance 23.48864941
Orbital 3 Variance 23.64395155
Orbital 10 Variance 25.27117015
Orbital 11 Variance 25.57651307
Orbital 1 Variance 25.98116421
Orbital 6 Variance 27.71151869
Orbital 4 Variance 28.23257181
Orbital 7 Variance 29.60558402
          ***** NUMBER OF SADDLE POINTS SO FAR = 0 ******

Initially in boys_jacobi.C before sweep, get_boys, boysval = 81.793447
In BOYS_JACOBI SWEEPS for get_boys, ending in round     6  because max_diff = 6.532869e-07


---> BEGIN 2nd Der Calculation    ******  
Guessing MaxD =  20 and MinD = 10
in get_boys.C: p = 0 guessthresh  52.4721356863 numsofar 18 MinD 10
in get_boys.C: p = 1 guessthresh  51.9721356863 numsofar 18 MinD 10
in get_boys.C: p = 2 guessthresh  51.7221356863 numsofar 13 MinD 10
in get_boys.C: p = 3 guessthresh  51.5971356863 numsofar 3 MinD 10
DimInGuess 3 mineval  51.4721356863 guessthresh  51.5971356863
round 0 sizeofsub 3 eval0 5.147214e+01 diffeval0 1.000505e+05 length_qM 1.255627e+00 thresh 1.000000e-08
round 1 sizeofsub 4 eval0 5.040363e+01 diffeval0 1.068509e+00 length_qM 4.580772e-01 thresh 1.000000e-08
round 2 sizeofsub 5 eval0 5.033123e+01 diffeval0 7.240038e-02 length_qM 8.496915e-02 thresh 1.000000e-08
round 3 sizeofsub 6 eval0 5.033005e+01 diffeval0 1.178421e-03 length_qM 2.687595e-01 thresh 1.000000e-08
round 4 sizeofsub 7 eval0 5.032887e+01 diffeval0 1.181733e-03 length_qM 5.708657e-02 thresh 1.000000e-08
round 5 sizeofsub 8 eval0 5.032875e+01 diffeval0 1.182532e-04 length_qM 5.930084e-03 thresh 1.000000e-08
round 6 sizeofsub 9 eval0 5.032871e+01 diffeval0 3.489185e-05 length_qM 4.247180e-02 thresh 1.000000e-08
round 7 sizeofsub 10 eval0 5.032869e+01 diffeval0 1.828595e-05 length_qM 1.469242e-03 thresh 1.000000e-08
round 8 sizeofsub 11 eval0 5.032869e+01 diffeval0 1.958439e-08 length_qM 2.029529e-04 thresh 1.000000e-08
round 9 sizeofsub 12 eval0 5.032869e+01 diffeval0 2.137109e-08 length_qM 1.563278e-03 thresh 1.000000e-08
round 10 sizeofsub 13 eval0 5.031463e+01 diffeval0 1.406755e-02 length_qM 1.052700e-01 thresh 1.000000e-08
round 11 sizeofsub 14 eval0 5.031454e+01 diffeval0 8.379756e-05 length_qM 1.934180e-02 thresh 1.000000e-08
round 12 sizeofsub 15 eval0 5.031453e+01 diffeval0 1.644716e-05 length_qM 1.632125e-02 thresh 1.000000e-08
round 13 sizeofsub 16 eval0 5.031447e+01 diffeval0 6.136497e-05 length_qM 1.173974e-02 thresh 1.000000e-08
round 14 sizeofsub 17 eval0 5.031446e+01 diffeval0 9.396569e-07 length_qM 4.973743e-04 thresh 1.000000e-08
round 15 sizeofsub 18 eval0 5.031446e+01 diffeval0 1.525467e-07 length_qM 1.940158e-03 thresh 1.000000e-08
round 16 sizeofsub 19 eval0 5.031446e+01 diffeval0 6.874377e-07 length_qM 8.889492e-04 thresh 1.000000e-08
round 17 sizeofsub 20 eval0 5.031446e+01 diffeval0 2.835030e-08 length_qM 1.282172e-03 thresh 1.000000e-08
round 18 sizeofsub 11 eval0 5.031446e+01 diffeval0 4.726441e-08 length_qM 3.685267e-04 thresh 1.000000e-08
round 19 sizeofsub 12 eval0 5.031446e+01 diffeval0 6.632348e-09 length_qM 6.649048e-05 thresh 1.000000e-08
round 20 sizeofsub 13 eval0 5.031446e+01 diffeval0 4.720683e-09 length_qM 5.370231e-04 thresh 1.000000e-08
round 21 sizeofsub 14 eval0 5.031446e+01 diffeval0 2.326850e-09 length_qM 1.492264e-05 thresh 1.000000e-08
round 22 sizeofsub 15 eval0 5.031446e+01 diffeval0 1.510614e-11 length_qM 6.480173e-06 thresh 1.000000e-08
round 23 sizeofsub 16 eval0 5.031446e+01 diffeval0 2.177813e-11 length_qM 3.467669e-05 thresh 1.000000e-08
round 24 sizeofsub 17 eval0 5.031446e+01 diffeval0 1.166001e-11 length_qM 1.318520e-06 thresh 1.000000e-08
round 25 sizeofsub 18 eval0 5.031446e+01 diffeval0 1.136868e-13 length_qM 4.831354e-07 thresh 1.000000e-08
Converged to smallest eigenvalue: eval0 5.031446e+01

Success!!! No Negative Eigenvalues: Ending Get Boys in C++ ...Bye Bye
Orbital 10 Variance 2.75551624
Orbital 11 Variance 2.76017058
Orbital 12 Variance 2.76228393
Orbital 6 Variance 2.76971655
Orbital 9 Variance 2.77138431
Orbital 5 Variance 2.77142032
Orbital 4 Variance 2.77241107
Orbital 2 Variance 2.77510708
Orbital 1 Variance 2.77515276
Orbital 7 Variance 2.77525229
Orbital 8 Variance 2.77592852
Orbital 3 Variance 2.77598510
EXECUTING ORTHO_FUNC DESTRUCTOR

 Dimensions of orbital sub-spaces:    
 Number Hole Orbs:Alpha:Beta:       2    2    2
 Number Active Orbs:Alpha:Beta:    12   11    1
 Number Part Orbs:Alpha:Beta:      14    0    0

 Dimensions in SF-RAS-hp calculation: 
 Number of active space determinants:  144
 Number of hole space determinants:    1608
 Number of part space determinants:    11256
 Number of hole-part determinants:     130060
 Total 1x space:                       13008
 Total singles space:                  143068
 REM_MEM_TOT: 2000
 Memory Used: 0
 Memory Left: 2000
 Memory Need: 2
 Constructing 1e MO integrals
 Form (P|Q)**(-1/2)...
 Job number = 66, Threshold = 1.00E-12
Integral type ranges set in mkLRange.C for JobNum: 66  <2-7|2-7>
Symmetry turned off temporarily
Storing 4338.82% of integrals
Total number of integrals generated =           19965
Symmetry turned back on
 Forming (pq|P)...
 Forming Active-Active (aa|P) integrals...

 Entering first-index batching code with I1Strt =    3 batch size =   12
 Job number = 65, Threshold = 1.00E-12
Integral type ranges set in mkLRange.C for JobNum: 65  <1-1|2-7>
Symmetry turned off temporarily
Storing 4338.82% of integrals
Total number of integrals generated =           57222
Symmetry turned back on
 Forming Active-Active B integrals...
 Contracting B matrices to form 2e integrals. 
 Forming 2J-K over o,v with exact integrals
 Calling AOints... Job number = 22, Threshold = 1.00E-12
Integral type ranges set in mkLRange.C for JobNum: 22  <1-1|1-1>
Storing 4338.82% of integrals
Total number of integrals generated =           38669
 done.

 ROHF energy found on disk: 
 E(ROHF):         -11.46927151
-11.46927151
 First 10 Diagonal elements of H: 
 11111111111_ | 1___________        -11.07675292
 11111111111_ | _1__________        -10.93246272
 11111111111_ | __1_________        -10.91497141
 11111111111_ | ___1________        -11.07616712
 11111111111_ | ____1_______        -10.99002979
 11111111111_ | _____1______        -10.92510156
 11111111111_ | ______1_____        -10.91270939
 11111111111_ | _______1____        -10.94073006
 11111111111_ | ________1___        -11.07559221
 11111111111_ | _________1__        -10.99785055
 Fill S2_CAS Matrix...  done.
 Fill H_CAS Matrix...  done.

 Diagonalizing H_CAS 
 Entering cast_sfcas_to_sfcis
 ===================================================================
 Theory           State:          Energy (au)       (eV)       <S2>
 -------------------------------------------------------------------
 SF-CAS               1:       -11.5289152297     0.0000    30.0000
 SF-CAS               2:       -11.5275441604     0.0373    30.0000
 SF-CAS               3:       -11.5271082648     0.0492    30.0000
 SF-CAS               4:       -11.5261488881     0.0753    30.0000
 SF-CAS               5:       -11.5259793723     0.0799    30.0000
 SF-CAS               6:       -11.5258859378     0.0824    30.0000
 SF-CAS               7:       -11.5255755086     0.0909    30.0000
 SF-CAS               8:       -11.5254992969     0.0930    30.0000
 SF-CAS               9:       -11.5254230796     0.0950    30.0000
 SF-CAS              10:       -11.4710418366     1.5748    30.0000
 SF-CAS              11:       -11.4709383153     1.5776    30.0000
 SF-CAS              12:       -11.4692715136     1.6230    42.0000
 SF-CAS              13:       -11.2091027272     8.7026    30.0000
 SF-CAS              14:       -11.2085483679     8.7177    30.0000
 SF-CAS              15:       -11.2048865183     8.8174    30.0000
 SF-CAS              16:       -11.2036774248     8.8503    30.0000
 SF-CAS              17:       -11.2028707386     8.8722    30.0000
 SF-CAS              18:       -11.2026640826     8.8778    30.0000
 SF-CAS              19:       -11.2019187973     8.8981    30.0000
 SF-CAS              20:       -11.2012628141     8.9160    30.0000
 SF-CAS              21:       -11.2004865597     8.9371    30.0000
 SF-CAS              22:       -11.1879288118     9.2788    30.0000
 SF-CAS              23:       -11.1838420496     9.3900    30.0000
 SF-CAS              24:       -11.1806208403     9.4777    30.0000
 SF-CAS              25:       -11.1766357640     9.5861    30.0000
 SF-CAS              26:       -11.1723100425     9.7038    30.0000
 SF-CAS              27:       -11.1713360688     9.7303    30.0000
 SF-CAS              28:       -11.1634604526     9.9446    30.0000
 SF-CAS              29:       -11.1602017831    10.0333    30.0000
 SF-CAS              30:       -11.1574067964    10.1094    30.0000
 SF-CAS              31:       -11.1521240632    10.2531    30.0000
 SF-CAS              32:       -11.1452843255    10.4392    30.0000
 SF-CAS              33:       -11.1439950089    10.4743    30.0000
 SF-CAS              34:       -11.1439811264    10.4747    30.0000
 SF-CAS              35:       -11.1383661353    10.6275    30.0000
 SF-CAS              36:       -11.1341869427    10.7412    30.0000
 SF-CAS              37:       -11.1325652145    10.7853    30.0000
 SF-CAS              38:       -11.1306438865    10.8376    30.0000
 SF-CAS              39:       -11.1284000942    10.8987    30.0000
 SF-CAS              40:       -11.0865466781    12.0376    30.0000
 SF-CAS              41:       -11.0856134164    12.0630    30.0000
 SF-CAS              42:       -11.0849598816    12.0808    30.0000
 SF-CAS              43:       -11.0840362556    12.1059    30.0000
 SF-CAS              44:       -11.0828875643    12.1371    30.0000
 SF-CAS              45:       -11.0825709558    12.1458    30.0000
 SF-CAS              46:       -11.0811125228    12.1855    30.0000
 SF-CAS              47:       -11.0806959367    12.1968    30.0000
 SF-CAS              48:       -11.0801676887    12.2112    30.0000
 SF-CAS              49:       -11.0795562866    12.2278    30.0000
 SF-CAS              50:       -11.0793925368    12.2323    30.0000
 SF-CAS              51:       -11.0788823906    12.2461    30.0000
 SF-CAS              52:       -11.0779301961    12.2720    30.0000
 SF-CAS              53:       -11.0774450392    12.2852    30.0000
 SF-CAS              54:       -11.0767816271    12.3033    30.0000
 SF-CAS              55:       -11.0759144375    12.3269    30.0000
 SF-CAS              56:       -11.0757686259    12.3309    30.0000
 SF-CAS              57:       -11.0728229392    12.4110    30.0000
 SF-CAS              58:       -10.9944717592    14.5431    30.0000
 SF-CAS              59:       -10.9920952330    14.6078    30.0000
 SF-CAS              60:       -10.9895627079    14.6767    30.0000
 SF-CAS              61:       -10.9859578360    14.7748    30.0000
 SF-CAS              62:       -10.9826711533    14.8642    30.0000
 SF-CAS              63:       -10.9787652493    14.9705    30.0000
 SF-CAS              64:       -10.9721776909    15.1497    30.0000
 SF-CAS              65:       -10.9706370537    15.1917    30.0000
 SF-CAS              66:       -10.9682000985    15.2580    30.0000
 SF-CAS              67:       -10.9653551122    15.3354    30.0000
 SF-CAS              68:       -10.9621676371    15.4221    30.0000
 SF-CAS              69:       -10.9586029280    15.5191    30.0000
 SF-CAS              70:       -10.9561070202    15.5871    30.0000
 SF-CAS              71:       -10.9549800810    15.6177    30.0000
 SF-CAS              72:       -10.9531962039    15.6663    30.0000
 SF-CAS              73:       -10.9519801374    15.6994    30.0000
 SF-CAS              74:       -10.9507547975    15.7327    30.0000
 SF-CAS              75:       -10.9489226383    15.7826    30.0000
 SF-CAS              76:       -10.9484011360    15.7967    30.0000
 SF-CAS              77:       -10.9474322165    15.8231    30.0000
 SF-CAS              78:       -10.9440086495    15.9163    30.0000
 SF-CAS              79:       -10.9426553284    15.9531    30.0000
 SF-CAS              80:       -10.9396161228    16.0358    30.0000
 SF-CAS              81:       -10.9373278637    16.0981    30.0000
 SF-CAS              82:       -10.9363347706    16.1251    30.0000
 SF-CAS              83:       -10.9361457085    16.1302    30.0000
 SF-CAS              84:       -10.9349049458    16.1640    30.0000
 SF-CAS              85:       -10.9335318648    16.2014    30.0000
 SF-CAS              86:       -10.9317699527    16.2493    30.0000
 SF-CAS              87:       -10.9307641785    16.2767    30.0000
 SF-CAS              88:       -10.9287180100    16.3324    30.0000
 SF-CAS              89:       -10.9283803036    16.3415    30.0000
 SF-CAS              90:       -10.9272453128    16.3724    30.0000
 SF-CAS              91:       -10.9263164372    16.3977    30.0000
 SF-CAS              92:       -10.9243818681    16.4504    30.0000
 SF-CAS              93:       -10.9236896947    16.4692    30.0000
 SF-CAS              94:       -10.9229268474    16.4899    30.0000
 SF-CAS              95:       -10.9206703356    16.5513    30.0000
 SF-CAS              96:       -10.9193998051    16.5859    30.0000
 SF-CAS              97:       -10.9183889295    16.6134    30.0000
 SF-CAS              98:       -10.9179433853    16.6256    30.0000
 SF-CAS              99:       -10.9162502926    16.6716    30.0000
 SF-CAS             100:       -10.9158474367    16.6826    30.0000
 SF-CAS             101:       -10.9142433920    16.7262    30.0000
 SF-CAS             102:       -10.9127606334    16.7666    30.0000
 SF-CAS             103:       -10.9120052679    16.7871    30.0000
 SF-CAS             104:       -10.9106882803    16.8230    30.0000
 SF-CAS             105:       -10.9093930158    16.8582    30.0000
 SF-CAS             106:       -10.9086926075    16.8773    30.0000
 SF-CAS             107:       -10.9074432478    16.9113    30.0000
 SF-CAS             108:       -10.9052527377    16.9709    30.0000
 SF-CAS             109:       -10.9038431109    17.0092    30.0000
 SF-CAS             110:       -10.9027265131    17.0396    30.0000
 SF-CAS             111:       -10.9017660436    17.0658    30.0000
 SF-CAS             112:       -10.9009110867    17.0890    30.0000
 SF-CAS             113:       -10.8992642184    17.1338    30.0000
 SF-CAS             114:       -10.8965325541    17.2082    30.0000
 SF-CAS             115:       -10.8930207615    17.3037    30.0000
 SF-CAS             116:       -10.8921414199    17.3277    30.0000
 SF-CAS             117:       -10.8903093305    17.3775    30.0000
 SF-CAS             118:       -10.8818833587    17.6068    30.0000
 SF-CAS             119:       -10.8800317655    17.6572    30.0000
 SF-CAS             120:       -10.8798229768    17.6629    30.0000
 SF-CAS             121:       -10.8784509959    17.7002    30.0000
 SF-CAS             122:       -10.8775202798    17.7255    30.0000
 SF-CAS             123:       -10.8769791095    17.7403    30.0000
 SF-CAS             124:       -10.8750682396    17.7923    30.0000
 SF-CAS             125:       -10.8731698431    17.8439    30.0000
 SF-CAS             126:       -10.8716417371    17.8855    30.0000
 SF-CAS             127:       -10.7199327645    22.0137    30.0000
 SF-CAS             128:       -10.7156093173    22.1314    30.0000
 SF-CAS             129:       -10.7127228657    22.2099    30.0000
 SF-CAS             130:       -10.7038156062    22.4523    30.0000
 SF-CAS             131:       -10.7017271853    22.5092    30.0000
 SF-CAS             132:       -10.6975787017    22.6220    30.0000
 SF-CAS             133:       -10.6897465551    22.8352    30.0000
 SF-CAS             134:       -10.6894927004    22.8421    30.0000
 SF-CAS             135:       -10.6829960811    23.0189    30.0000
 SF-CAS             136:       -10.6806564090    23.0825    30.0000
 SF-CAS             137:       -10.6789932427    23.1278    30.0000
 SF-CAS             138:       -10.6769248003    23.1841    30.0000
 SF-CAS             139:       -10.6727944086    23.2965    30.0000
 SF-CAS             140:       -10.6711169594    23.3421    30.0000
 SF-CAS             141:       -10.6679029239    23.4296    30.0000
 SF-CAS             142:       -10.6591593278    23.6675    30.0000
 SF-CAS             143:       -10.6554630872    23.7681    30.0000
 SF-CAS             144:       -10.6527286531    23.8425    30.0000
 ===================================================================

              Active Space Coefficients > 0.20
 -------------------------------------------------------------------
 State  1                       Configuration         Coeff.   <S^2>
 -------------------------------------------------------------------
                  11111111111_ | ___________1      -0.379874  31.000
                  1111111111_1 | __________1_       0.314598  31.000
                  111111111_11 | _________1__       0.562928  31.000
                  1111111_1111 | _______1____      -0.206704  31.000
                  111111_11111 | ______1_____      -0.212454  31.000
                  1_1111111111 | _1__________      -0.289168  31.000
 -------------------------------------------------------------------
 State  2                       Configuration         Coeff.   <S^2>
 -------------------------------------------------------------------
                  11111111111_ | ___________1      -0.261510  31.000
                  1111111111_1 | __________1_      -0.603249  31.000
                  111111_11111 | ______1_____       0.264373  31.000
                  _11111111111 | 1___________      -0.410339  31.000
 -------------------------------------------------------------------
 State  3                       Configuration         Coeff.   <S^2>
 -------------------------------------------------------------------
                  11111111111_ | ___________1      -0.500541  31.000
                  111111111_11 | _________1__      -0.360064  31.000
                  11111111_111 | ________1___      -0.223670  31.000
                  11111_111111 | _____1______       0.400140  31.000
                  1111_1111111 | ____1_______      -0.356219  31.000
                  111_11111111 | ___1________       0.219822  31.000
 -------------------------------------------------------------------
 State  4                       Configuration         Coeff.   <S^2>
 -------------------------------------------------------------------
                  11111111111_ | ___________1      -0.255603  31.000
                  111111111_11 | _________1__      -0.255720  31.000
                  111111_11111 | ______1_____      -0.301903  31.000
                  11111_111111 | _____1______      -0.246695  31.000
                  1_1111111111 | _1__________       0.285071  31.000
                  _11111111111 | 1___________      -0.556309  31.000
 -------------------------------------------------------------------
 State  5                       Configuration         Coeff.   <S^2>
 -------------------------------------------------------------------
                  11111111111_ | ___________1      -0.221393  31.000
                  1111111_1111 | _______1____       0.320094  31.000
                  111111_11111 | ______1_____       0.244984  31.000
                  11111_111111 | _____1______       0.269870  31.000
                  1111_1111111 | ____1_______       0.663656  31.000
 -------------------------------------------------------------------
 State  6                       Configuration         Coeff.   <S^2>
 -------------------------------------------------------------------
                  11111111111_ | ___________1       0.228630  31.000
                  1111111111_1 | __________1_       0.325826  31.000
                  11111111_111 | ________1___       0.278619  31.000
                  11111_111111 | _____1______       0.544234  31.000
                  111_11111111 | ___1________      -0.301152  31.000
                  _11111111111 | 1___________      -0.353839  31.000
 -------------------------------------------------------------------
 State  7                       Configuration         Coeff.   <S^2>
 -------------------------------------------------------------------
                  11111111_111 | ________1___      -0.634995  31.000
                  111_11111111 | ___1________      -0.643605  31.000
 -------------------------------------------------------------------
 State  8                       Configuration         Coeff.   <S^2>
 -------------------------------------------------------------------
                  1111111_1111 | _______1____       0.642985  31.000
                  1_1111111111 | _1__________      -0.611994  31.000
 -------------------------------------------------------------------
 State  9                       Configuration         Coeff.   <S^2>
 -------------------------------------------------------------------
                  111111_11111 | ______1_____       0.550964  31.000
                  11_111111111 | __1_________      -0.709926  31.000
 -------------------------------------------------------------------
 State  10                      Configuration         Coeff.   <S^2>
 -------------------------------------------------------------------
                  11111111111_ | ___________1       0.260008  31.000
                  111111111_11 | _________1__      -0.373583  31.000
                  11111111_111 | ________1___      -0.280963  31.000
                  1111111_1111 | _______1____      -0.407068  31.000
                  1111_1111111 | ____1_______       0.396197  31.000
                  111_11111111 | ___1________       0.282063  31.000
                  1_1111111111 | _1__________      -0.408852  31.000
                  _11111111111 | 1___________      -0.285175  31.000
 -------------------------------------------------------------------
 State  11                      Configuration         Coeff.   <S^2>
 -------------------------------------------------------------------
                  11111111111_ | ___________1      -0.296868  31.000
                  1111111111_1 | __________1_      -0.369460  31.000
                  11111111_111 | ________1___       0.292166  31.000
                  111111_11111 | ______1_____      -0.399508  31.000
                  11111_111111 | _____1______       0.387493  31.000
                  111_11111111 | ___1________      -0.294419  31.000
                  11_111111111 | __1_________      -0.399256  31.000
                  _11111111111 | 1___________       0.308465  31.000
 -------------------------------------------------------------------
 State  12                      Configuration         Coeff.   <S^2>
 -------------------------------------------------------------------
                  11111111111_ | ___________1      -0.288675  31.000
                  1111111111_1 | __________1_       0.288675  31.000
                  111111111_11 | _________1__      -0.288675  31.000
                  11111111_111 | ________1___       0.288675  31.000
                  1111111_1111 | _______1____      -0.288675  31.000
                  111111_11111 | ______1_____       0.288675  31.000
                  11111_111111 | _____1______      -0.288675  31.000
                  1111_1111111 | ____1_______       0.288675  31.000
                  111_11111111 | ___1________      -0.288675  31.000
                  11_111111111 | __1_________       0.288675  31.000
                  1_1111111111 | _1__________      -0.288675  31.000
                  _11111111111 | 1___________       0.288675  31.000
 -------------------------------------------------------------------
 State  13                      Configuration         Coeff.   <S^2>
 -------------------------------------------------------------------
                  1111111111_1 | _____1______      -0.227329  30.000
                  111111111_11 | _1__________       0.223863  30.000
                  111111111_11 | ____1_______       0.242905  30.000
                  111111111_11 | _______1____       0.204685  30.000
                  111111111_11 | __________1_      -0.201189  30.000
 -------------------------------------------------------------------
 State  14                      Configuration         Coeff.   <S^2>
 -------------------------------------------------------------------
                  11111111111_ | 1___________       0.220389  30.000
                  1111111111_1 | __1_________      -0.226105  30.000
                  1111111111_1 | ___1________      -0.217887  30.000
                  1111111111_1 | ______1_____       0.235348  30.000
                  1111111111_1 | ________1___       0.220184  30.000
                  1111111111_1 | ___________1      -0.212937  30.000
                  11111111_111 | ___1________       0.217711  30.000
                  111_11111111 | ________1___      -0.210113  30.000
 -------------------------------------------------------------------
 State  15                      Configuration         Coeff.   <S^2>
 -------------------------------------------------------------------
                  11111_111111 | __________1_      -0.204366  30.000
                  1111_1111111 | _1__________       0.212578  30.000
                  1111_1111111 | _______1____       0.289360  30.000
                  1111_1111111 | _________1__      -0.325416  30.000
                  1_1111111111 | _______1____       0.277109  30.000
                  1_1111111111 | _________1__      -0.277073  30.000
 -------------------------------------------------------------------
 State  16                      Configuration         Coeff.   <S^2>
 -------------------------------------------------------------------
                  11111111111_ | ___1________      -0.217309  30.000
                  11111111111_ | ________1___       0.227074  30.000
                  1111_1111111 | _________1__       0.246786  30.000
                  _11111111111 | ___1________       0.291244  30.000
                  _11111111111 | ________1___      -0.282927  30.000
                  _11111111111 | ___________1       0.245688  30.000
 -------------------------------------------------------------------
 State  17                      Configuration         Coeff.   <S^2>
 -------------------------------------------------------------------
                  111111_11111 | _____1______       0.340504  30.000
                  111111_11111 | __________1_      -0.361760  30.000
                  11_111111111 | __1_________       0.253442  31.000
                  11_111111111 | _____1______       0.408428  30.000
                  11_111111111 | ______1_____       0.302122  30.000
                  11_111111111 | __________1_      -0.419225  30.000
 -------------------------------------------------------------------
 State  18                      Configuration         Coeff.   <S^2>
 -------------------------------------------------------------------
                  111111111_11 | _______1____      -0.310252  30.000
                  1111111_1111 | _________1__      -0.351576  30.000
                  1111_1111111 | _1__________       0.284978  30.000
                  1_1111111111 | ____1_______      -0.349132  30.000
                  1_1111111111 | _______1____      -0.201159  30.000
                  1_1111111111 | _________1__       0.226655  30.000
 -------------------------------------------------------------------
 State  19                      Configuration         Coeff.   <S^2>
 -------------------------------------------------------------------
                  11111111111_ | 1___________       0.275267  30.000
                  1111111111_1 | __1_________       0.228888  30.000
                  1111111111_1 | ______1_____      -0.228676  30.000
                  11111111_111 | ___1________       0.225500  30.000
                  1111111_1111 | _1__________      -0.213460  30.000
                  1111111_1111 | ____1_______      -0.213840  30.000
                  1111111_1111 | _________1__       0.216439  30.000
                  111_11111111 | ________1___      -0.230441  30.000
 -------------------------------------------------------------------
 State  20                      Configuration         Coeff.   <S^2>
 -------------------------------------------------------------------
                  111111111_11 | _1__________      -0.282065  30.000
                  1111111_1111 | ____1_______      -0.280489  30.000
                  11111_111111 | __1_________       0.258994  30.000
                  11111_111111 | ______1_____      -0.272559  30.000
                  11111_111111 | __________1_       0.303072  30.000
                  1111_1111111 | _______1____       0.214622  30.000
                  1_1111111111 | _________1__      -0.236056  30.000
 -------------------------------------------------------------------
 State  21                      Configuration         Coeff.   <S^2>
 -------------------------------------------------------------------
                  11111111_111 | 1___________      -0.384212  30.000
                  11111111_111 | ___1________       0.258669  30.000
                  11111111_111 | ________1___       0.231459  31.000
                  11111111_111 | ___________1       0.400101  30.000
                  111_11111111 | 1___________       0.384097  30.000
                  111_11111111 | ___1________       0.239495  31.000
                  111_11111111 | ________1___       0.277341  30.000
                  111_11111111 | ___________1      -0.416100  30.000
 -------------------------------------------------------------------
 State  22                      Configuration         Coeff.   <S^2>
 -------------------------------------------------------------------
                  1111111111_1 | ___1________       0.204986  30.000
                  1111111111_1 | ________1___      -0.207374  30.000
                  111111111_11 | _____1______      -0.235418  30.000
                  111111111_11 | __________1_       0.237583  30.000
 -------------------------------------------------------------------
 State  23                      Configuration         Coeff.   <S^2>
 -------------------------------------------------------------------
                  1111111111_1 | ___1________      -0.209695  30.000
                  1111111111_1 | ________1___       0.213670  30.000
                  1111111111_1 | ___________1      -0.205330  30.000
                  111111111_11 | ___________1       0.205470  30.000
 -------------------------------------------------------------------
 State  24                      Configuration         Coeff.   <S^2>
 -------------------------------------------------------------------
                  1111111111_1 | _______1____      -0.215237  30.000
                  1111111111_1 | _________1__       0.297449  30.000
                  11111_111111 | _1__________       0.237193  30.000
                  11111_111111 | ____1_______       0.238937  30.000
                  11111_111111 | _______1____       0.274206  30.000
                  11111_111111 | _________1__      -0.329195  30.000
 -------------------------------------------------------------------
 State  25                      Configuration         Coeff.   <S^2>
 -------------------------------------------------------------------
                  11111111111_ | _1__________       0.245660  30.000
                  11111111111_ | ____1_______       0.303906  30.000
                  11111111111_ | _______1____       0.252823  30.000
                  11111111111_ | _________1__      -0.340392  30.000
                  111111111_11 | _____1______      -0.214376  30.000
                  11111_111111 | _________1__      -0.216527  30.000
 -------------------------------------------------------------------
 State  26                      Configuration         Coeff.   <S^2>
 -------------------------------------------------------------------
                  11111111_111 | __1_________      -0.284006  30.000
                  11111111_111 | _____1______       0.285486  30.000
                  11111111_111 | ______1_____       0.270870  30.000
                  11111111_111 | __________1_      -0.406370  30.000
                  111_11111111 | __1_________       0.251855  30.000
                  111_11111111 | _____1______      -0.267510  30.000
                  111_11111111 | ______1_____      -0.260961  30.000
                  111_11111111 | __________1_       0.364040  30.000
 -------------------------------------------------------------------
 State  27                      Configuration         Coeff.   <S^2>
 -------------------------------------------------------------------
                  1111111111_1 | ___1________      -0.221064  30.000
                  1111111111_1 | ________1___       0.223682  30.000
                  111111111_11 | ___________1      -0.251939  30.000
                  11111_111111 | _________1__      -0.210122  30.000
                  1111_1111111 | ___________1       0.256304  30.000
 -------------------------------------------------------------------
 State  28                      Configuration         Coeff.   <S^2>
 -------------------------------------------------------------------
                  1111111111_1 | _______1____      -0.207230  30.000
                  1111111111_1 | _________1__       0.272897  30.000
                  11_111111111 | _________1__      -0.212628  30.000
 -------------------------------------------------------------------
 State  29                      Configuration         Coeff.   <S^2>
 -------------------------------------------------------------------
 -------------------------------------------------------------------
 State  30                      Configuration         Coeff.   <S^2>
 -------------------------------------------------------------------
                  11111111111_ | __________1_      -0.210936  30.000
                  1111111_1111 | ___________1       0.232494  30.000
                  1111_1111111 | 1___________      -0.226533  30.000
                  1111_1111111 | ___1________       0.231940  30.000
                  1111_1111111 | ________1___      -0.231191  30.000
                  1111_1111111 | ___________1       0.322632  30.000
 -------------------------------------------------------------------
 State  31                      Configuration         Coeff.   <S^2>
 -------------------------------------------------------------------
                  1111111_1111 | __1_________       0.288749  30.000
                  1111111_1111 | _____1______      -0.372864  30.000
                  1111111_1111 | ______1_____      -0.287125  30.000
                  1111111_1111 | __________1_       0.328431  30.000
                  1_1111111111 | __1_________      -0.230267  30.000
                  1_1111111111 | _____1______       0.269889  30.000
                  1_1111111111 | ______1_____       0.219095  30.000
                  1_1111111111 | __________1_      -0.283031  30.000
 -------------------------------------------------------------------
 State  32                      Configuration         Coeff.   <S^2>
 -------------------------------------------------------------------
                  11111111_111 | _1__________       0.243503  30.000
                  11111111_111 | ____1_______       0.272640  30.000
                  11111111_111 | _______1____       0.245353  30.000
                  11111111_111 | _________1__      -0.298091  30.000
                  111_11111111 | _1__________      -0.209949  30.000
                  111_11111111 | ____1_______      -0.242541  30.000
                  111_11111111 | _______1____      -0.219801  30.000
                  111_11111111 | _________1__       0.247170  30.000
 -------------------------------------------------------------------
 State  33                      Configuration         Coeff.   <S^2>
 -------------------------------------------------------------------
                  111111_11111 | ___1________       0.241422  30.000
                  111111_11111 | ________1___      -0.233210  30.000
                  111111_11111 | ___________1       0.243338  30.000
                  11_111111111 | ___1________       0.217035  30.000
                  11_111111111 | ________1___      -0.231805  30.000
                  11_111111111 | ___________1       0.223746  30.000
 -------------------------------------------------------------------
 State  34                      Configuration         Coeff.   <S^2>
 -------------------------------------------------------------------
                  111_11111111 | _________1__       0.213956  30.000
                  _11111111111 | __1_________       0.233429  30.000
                  _11111111111 | _____1______      -0.245813  30.000
                  _11111111111 | ______1_____      -0.233002  30.000
                  _11111111111 | __________1_       0.279812  30.000
 -------------------------------------------------------------------
 State  35                      Configuration         Coeff.   <S^2>
 -------------------------------------------------------------------
                  1111111_1111 | ___1________       0.203429  30.000
                  1111111_1111 | ___________1       0.238755  30.000
                  11111_111111 | 1___________      -0.225990  30.000
                  11111_111111 | ___1________       0.267649  30.000
                  11111_111111 | ________1___      -0.265815  30.000
                  11111_111111 | ___________1       0.253624  30.000
 -------------------------------------------------------------------
 State  36                      Configuration         Coeff.   <S^2>
 -------------------------------------------------------------------
                  111111_11111 | _1__________      -0.270929  30.000
                  111111_11111 | ___1________      -0.206625  30.000
                  111111_11111 | ____1_______      -0.257825  30.000
                  111111_11111 | _______1____      -0.293419  30.000
                  111111_11111 | _________1__       0.300659  30.000
                  11_111111111 | _1__________      -0.278147  30.000
                  11_111111111 | ____1_______      -0.259244  30.000
                  11_111111111 | _______1____      -0.289302  30.000
                  11_111111111 | _________1__       0.317873  30.000
 -------------------------------------------------------------------
 State  37                      Configuration         Coeff.   <S^2>
 -------------------------------------------------------------------
                  _11111111111 | _________1__      -0.210406  30.000
 -------------------------------------------------------------------
 State  38                      Configuration         Coeff.   <S^2>
 -------------------------------------------------------------------
                  1_1111111111 | 1___________       0.204328  30.000
                  1_1111111111 | ___1________      -0.204015  30.000
                  1_1111111111 | ________1___       0.209108  30.000
                  1_1111111111 | ___________1      -0.244379  30.000
                  _11111111111 | _1__________       0.204757  30.000
                  _11111111111 | ____1_______       0.239854  30.000
                  _11111111111 | _______1____       0.204898  30.000
                  _11111111111 | _________1__      -0.229297  30.000
 -------------------------------------------------------------------
 State  39                      Configuration         Coeff.   <S^2>
 -------------------------------------------------------------------
                  11111111111_ | __________1_      -0.227908  30.000
                  1111_1111111 | _____1______       0.223810  30.000
                  1111_1111111 | __________1_      -0.207343  30.000
                  1_1111111111 | __1_________      -0.216169  30.000
                  1_1111111111 | _____1______       0.252510  30.000
                  1_1111111111 | ______1_____       0.204514  30.000
                  1_1111111111 | __________1_      -0.207794  30.000
                  _11111111111 | __1_________       0.206256  30.000
                  _11111111111 | ______1_____      -0.207658  30.000
                  _11111111111 | __________1_       0.241370  30.000
 -------------------------------------------------------------------
 State  40                      Configuration         Coeff.   <S^2>
 -------------------------------------------------------------------
                  111111111_11 | ____1_______       0.449844  30.000
                  111111111_11 | _______1____      -0.349077  30.000
                  1111111_1111 | _1__________      -0.265124  30.000
                  1_1111111111 | ____1_______       0.302533  30.000
                  1_1111111111 | _______1____      -0.370277  30.000
 -------------------------------------------------------------------
 State  41                      Configuration         Coeff.   <S^2>
 -------------------------------------------------------------------
                  11111111111_ | 1___________       0.458144  30.000
                  11111111111_ | ________1___      -0.287548  30.000
                  11111111_111 | ___1________      -0.302370  30.000
                  1111_1111111 | _______1____      -0.204246  30.000
                  111_11111111 | 1___________      -0.252047  30.000
                  111_11111111 | ________1___       0.318478  30.000
 -------------------------------------------------------------------
 State  42                      Configuration         Coeff.   <S^2>
 -------------------------------------------------------------------
                  11111111111_ | 1___________      -0.216791  30.000
                  1111111111_1 | _____1______       0.327041  30.000
                  111111111_11 | _1__________      -0.334614  30.000
                  1111111_1111 | ____1_______       0.248489  30.000
                  111111_11111 | __1_________       0.244577  30.000
                  1111_1111111 | _______1____      -0.246571  30.000
                  11_111111111 | ______1_____       0.222414  30.000
 -------------------------------------------------------------------
 State  43                      Configuration         Coeff.   <S^2>
 -------------------------------------------------------------------
                  11111111111_ | ___1________      -0.492190  30.000
                  11111111111_ | ________1___      -0.439607  30.000
                  11111111_111 | 1___________       0.277997  30.000
                  111_11111111 | 1___________      -0.229224  30.000
                  _11111111111 | ___1________       0.379795  30.000
                  _11111111111 | ________1___       0.383221  30.000
 -------------------------------------------------------------------
 State  44                      Configuration         Coeff.   <S^2>
 -------------------------------------------------------------------
                  1111111111_1 | _____1______      -0.258412  30.000
                  111111111_11 | _1__________      -0.397075  30.000
                  111111111_11 | _______1____       0.431979  30.000
                  1111_1111111 | _1__________       0.350075  30.000
                  1111_1111111 | _______1____      -0.288089  30.000
                  11_111111111 | ______1_____      -0.206641  30.000
                  1_1111111111 | ____1_______      -0.253553  30.000
 -------------------------------------------------------------------
 State  45                      Configuration         Coeff.   <S^2>
 -------------------------------------------------------------------
                  1111111111_1 | __1_________       0.479532  30.000
                  1111111111_1 | ______1_____       0.478191  30.000
                  111111_11111 | _____1______       0.263842  30.000
                  11111_111111 | __1_________      -0.348286  30.000
                  11111_111111 | ______1_____      -0.373816  30.000
                  11_111111111 | _____1______       0.261570  30.000
 -------------------------------------------------------------------
 State  46                      Configuration         Coeff.   <S^2>
 -------------------------------------------------------------------
                  111111111_11 | ____1_______       0.257676  30.000
                  11111111_111 | ___________1       0.209182  30.000
                  1111111_1111 | _1__________       0.201761  30.000
                  1111111_1111 | _________1__       0.303261  30.000
                  1111_1111111 | _1__________       0.276696  30.000
                  1111_1111111 | _________1__       0.451484  30.000
 -------------------------------------------------------------------
 State  47                      Configuration         Coeff.   <S^2>
 -------------------------------------------------------------------
                  11111111_111 | 1___________      -0.374858  30.000
                  11111111_111 | ___1________      -0.407143  30.000
                  111_11111111 | 1___________       0.397900  30.000
                  111_11111111 | ________1___      -0.391883  30.000
                  _11111111111 | ___1________       0.400109  30.000
                  _11111111111 | ________1___       0.356321  30.000
 -------------------------------------------------------------------
 State  48                      Configuration         Coeff.   <S^2>
 -------------------------------------------------------------------
                  1111111_1111 | _1__________      -0.430671  30.000
                  1111111_1111 | ____1_______       0.280151  30.000
                  1111_1111111 | _1__________      -0.280560  30.000
                  1111_1111111 | _______1____       0.386714  30.000
                  1_1111111111 | _______1____       0.430615  30.000
                  1_1111111111 | _________1__       0.277296  30.000
 -------------------------------------------------------------------
 State  49                      Configuration         Coeff.   <S^2>
 -------------------------------------------------------------------
                  11111111111_ | 1___________      -0.248332  30.000
                  11111111_111 | ___________1       0.227244  30.000
                  111111_11111 | _____1______       0.213311  30.000
[...]
   697     3317.88433860    31506.71873692        6.00000000      cm-1
   698     3320.05842067    31508.89281899       12.00000000      cm-1
   699     3323.66012490    31512.49452322        6.00000000      cm-1
   700     3333.40755536    31522.24195368        6.00000000      cm-1
   701     3339.88199601    31528.71639432       12.00000000      cm-1
   702     3347.29361112    31536.12800944        2.00000000      cm-1
   703     3350.70615964    31539.54055796        6.00000000      cm-1
   704     3352.90406751    31541.73846582        6.00000000      cm-1
   705     3353.10586771    31541.94026603       12.00000000      cm-1
   706     3355.40244326    31544.23684157       20.00000000      cm-1
   707     3359.46075975    31548.29515807       12.00000000      cm-1
   708     3380.12332748    31568.95772580       12.00000000      cm-1
   709     3386.10837777    31574.94277608       20.00000000      cm-1
   710     3390.71634862    31579.55074694        6.00000000      cm-1
   711     3396.66079332    31585.49519163        6.00000000      cm-1
   712     3402.08346824    31590.91786655       12.00000000      cm-1
   713     3408.02042649    31596.85482481        6.00000000      cm-1
   714     3411.77797563    31600.61237395       12.00000000      cm-1
   715     3413.59662911    31602.43102743       12.00000000      cm-1
   716     3415.87294440    31604.70734272        2.00000000      cm-1
   717     3425.49656511    31614.33096343        6.00000000      cm-1
   718     3429.89625690    31618.73065522       20.00000000      cm-1
   719     3431.76513603    31620.59953434       -0.00000000      cm-1
   720     3438.28239774    31627.11679606        2.00000000      cm-1
   721     3441.31353682    31630.14793514        6.00000000      cm-1
   722     3445.24223705    31634.07663536        2.00000000      cm-1
   723     3448.79909463    31637.63349294        6.00000000      cm-1
   724     3452.70945714    31641.54385545       12.00000000      cm-1
   725     3458.93533636    31647.76973468        2.00000000      cm-1
   726     3458.96188789    31647.79628621       -0.00000000      cm-1
   727     3462.78712343    31651.62152175       12.00000000      cm-1
   728     3469.01188404    31657.84628235        6.00000000      cm-1
   729     3469.69504137    31658.52943969       20.00000000      cm-1
   730     3471.84905882    31660.68345713       20.00000000      cm-1
   731     3476.72518031    31665.55957863        0.00000000      cm-1
   732     3482.61706669    31671.45146500        2.00000000      cm-1
   733     3487.46337965    31676.29777797       12.00000000      cm-1
   734     3489.65298731    31678.48738563        6.00000000      cm-1
   735     3502.65237197    31691.48677029        6.00000000      cm-1
   736     3512.56534058    31701.39973890        6.00000000      cm-1
   737     3514.05237273    31702.88677105       20.00000000      cm-1
   738     3514.68243665    31703.51683497       12.00000000      cm-1
   739     3532.20809579    31721.04249411       12.00000000      cm-1
   740     3533.49395304    31722.32835136       20.00000000      cm-1
   741     3535.65604471    31724.49044302       12.00000000      cm-1
   742     3550.76830944    31739.60270776        6.00000000      cm-1
   743     3557.40267830    31746.23707662       20.00000000      cm-1
   744     3561.88342130    31750.71781962        6.00000000      cm-1
   745     3569.89020492    31758.72460324       20.00000000      cm-1
   746     3573.55653318    31762.39093149       12.00000000      cm-1
   747     3580.97047871    31769.80487702       20.00000000      cm-1
   748     3586.46511219    31775.29951050       12.00000000      cm-1
   749     3624.75281169    31813.58721001       20.00000000      cm-1
   750     3648.55268112    31837.38707944       20.00000000      cm-1
   751     3679.48760083    31868.32199915       20.00000000      cm-1
   752     3680.64776014    31869.48215845       20.00000000      cm-1
   753     3683.95617202    31872.79057034       12.00000000      cm-1
   754     3687.58169046    31876.41608878        6.00000000      cm-1
   755     3731.69769023    31920.53208855       20.00000000      cm-1
   756     3759.78938244    31948.62378075       20.00000000      cm-1
   757     3772.08767172    31960.92207003       20.00000000      cm-1
   758     8597.11130849    36785.94570681        0.00000000      cm-1
   759     8634.92774737    36823.76214568        0.00000000      cm-1
   760     8665.89352480    36854.72792312        2.00000000      cm-1
   761     8694.54118282    36883.37558113        2.00000000      cm-1
   762     8712.62636868    36901.46076699        0.00000000      cm-1
   763     8784.56664560    36973.40104392        2.00000000      cm-1
   764     8801.10445691    36989.93885523        6.00000000      cm-1
   765     8812.13949239    37000.97389071        6.00000000      cm-1
   766     8906.13122915    37094.96562747       -0.00000000      cm-1
   767     8926.26855663    37115.10295495        6.00000000      cm-1
   768     8974.99318873    37163.82758705        2.00000000      cm-1
   769     8984.57044729    37173.40484561       12.00000000      cm-1
   770     8998.50918019    37187.34357850       12.00000000      cm-1
   771     9018.30518439    37207.13958270        0.00000000      cm-1
   772     9059.40855197    37248.24295029        0.00000000      cm-1
   773     9090.29425875    37279.12865707        2.00000000      cm-1
   774     9110.71894827    37299.55334659        6.00000000      cm-1
   775     9121.04726471    37309.88166303        2.00000000      cm-1
   776     9133.67309513    37322.50749345       12.00000000      cm-1
   777     9207.82116399    37396.65556230       20.00000000      cm-1
   778     9231.93769461    37420.77209293        6.00000000      cm-1
   779     9242.68590530    37431.52030361        6.00000000      cm-1
   780     9252.29285931    37441.12725762       20.00000000      cm-1
   781     9309.58160117    37498.41599949       12.00000000      cm-1
   782     9401.34717517    37590.18157348       20.00000000      cm-1
   783     9421.25043557    37610.08483389       12.00000000      cm-1
   784     9438.91410857    37627.74850688       12.00000000      cm-1
   785     9566.58711556    37755.42151388       20.00000000      cm-1
   786     9652.58278202    37841.41718033       20.00000000      cm-1
   787     9705.49746014    37894.33185846       20.00000000      cm-1
   788    14481.61371435    42670.44811267        2.00000000      cm-1
   789    14562.77542594    42751.60982426        2.00000000      cm-1
   790    14612.66189246    42801.49629078        2.00000000      cm-1
   791    14628.57122691    42817.40562522        6.00000000      cm-1
   792    14635.95397036    42824.78836867       -0.00000000      cm-1
   793    14672.72067756    42861.55507588       -0.00000000      cm-1
   794    14678.23134067    42867.06573899        2.00000000      cm-1
   795    14694.65214200    42883.48654032        6.00000000      cm-1
   796    14730.32164649    42919.15604481        2.00000000      cm-1
   797    14748.03235069    42936.86674900        2.00000000      cm-1
   798    14749.89139352    42938.72579184        0.00000000      cm-1
   799    14756.35161141    42945.18600973        6.00000000      cm-1
   800    14783.00376237    42971.83816068        6.00000000      cm-1
   801    14791.80419020    42980.63858852        2.00000000      cm-1
   802    14796.19674286    42985.03114118        2.00000000      cm-1
   803    14804.47423438    42993.30863270       -0.00000000      cm-1
   804    14809.44415088    42998.27854919        6.00000000      cm-1
   805    14813.20699609    43002.04139441       -0.00000000      cm-1
   806    14831.17673238    43020.01113070        2.00000000      cm-1
   807    14836.62735974    43025.46175806       12.00000000      cm-1
   808    14847.89801042    43036.73240874        2.00000000      cm-1
   809    14851.01867196    43039.85307028        6.00000000      cm-1
   810    14860.73622148    43049.57061979        2.00000000      cm-1
   811    14877.05944116    43065.89383947        2.00000000      cm-1
   812    14882.09723138    43070.93162970       12.00000000      cm-1
   813    14884.54640068    43073.38079900        2.00000000      cm-1
   814    14886.82683822    43075.66123653        6.00000000      cm-1
   815    14909.27738740    43098.11178572        2.00000000      cm-1
   816    14918.91382348    43107.74822180       12.00000000      cm-1
   817    14928.42322741    43117.25762572        6.00000000      cm-1
   818    14957.53256408    43146.36696239        6.00000000      cm-1
   819    14959.75008206    43148.58448038        2.00000000      cm-1
   820    14961.47270307    43150.30710139       12.00000000      cm-1
   821    14975.11870413    43163.95310244       12.00000000      cm-1
   822    14979.09344583    43167.92784415        2.00000000      cm-1
   823    14984.19629244    43173.03069075        2.00000000      cm-1
   824    14998.06602826    43186.90042658       12.00000000      cm-1
   825    14998.40129474    43187.23569306        6.00000000      cm-1
   826    15015.61280769    43204.44720601        0.00000000      cm-1
   827    15016.26027537    43205.09467369        6.00000000      cm-1
   828    15028.17692123    43217.01131955        6.00000000      cm-1
   829    15034.03898018    43222.87337849        6.00000000      cm-1
   830    15037.05756121    43225.89195953        6.00000000      cm-1
   831    15040.49880153    43229.33319985       12.00000000      cm-1
   832    15088.04711644    43276.88151476        2.00000000      cm-1
   833    15093.86992471    43282.70432302       20.00000000      cm-1
   834    15101.22646180    43290.06086011        6.00000000      cm-1
   835    15103.19693257    43292.03133089        0.00000000      cm-1
   836    15119.13599327    43307.97039158       12.00000000      cm-1
   837    15149.52706801    43338.36146632       12.00000000      cm-1
   838    15155.42513201    43344.25953033        6.00000000      cm-1
   839    15156.42918302    43345.26358134        6.00000000      cm-1
   840    15165.82018664    43354.65458496        2.00000000      cm-1
   841    15180.08325908    43368.91765740       20.00000000      cm-1
   842    15188.77744028    43377.61183860        2.00000000      cm-1
   843    15191.91826077    43380.75265908       12.00000000      cm-1
   844    15206.40710664    43395.24150495        0.00000000      cm-1
   845    15220.14835877    43408.98275709       12.00000000      cm-1
   846    15228.69248858    43417.52688690        6.00000000      cm-1
   847    15236.47932795    43425.31372627        2.00000000      cm-1
   848    15237.26626965    43426.10066796       12.00000000      cm-1
   849    15256.24364670    43445.07804502        6.00000000      cm-1
   850    15258.46669964    43447.30109795       12.00000000      cm-1
   851    15261.81858468    43450.65298299        0.00000000      cm-1
   852    15270.95850459    43459.79290290        2.00000000      cm-1
   853    15279.57716866    43468.41156698       12.00000000      cm-1
   854    15305.70874448    43494.54314279        6.00000000      cm-1
   855    15308.78937344    43497.62377175        2.00000000      cm-1
   856    15317.82707231    43506.66147062       12.00000000      cm-1
   857    15318.95740365    43507.79180196       20.00000000      cm-1
   858    15320.70145586    43509.53585418        6.00000000      cm-1
   859    15334.56593982    43523.40033814       20.00000000      cm-1
   860    15335.70065958    43524.53505790       30.00000000      cm-1
   861    15352.01829510    43540.85269341        2.00000000      cm-1
   862    15371.09155480    43559.92595311       12.00000000      cm-1
   863    15371.23491341    43560.06931173        2.00000000      cm-1
   864    15401.84621842    43590.68061673       12.00000000      cm-1
   865    15403.38398293    43592.21838125        6.00000000      cm-1
   866    15410.00475190    43598.83915022        2.00000000      cm-1
   867    15410.32091237    43599.15531068       12.00000000      cm-1
   868    15444.24781767    43633.08221599       20.00000000      cm-1
   869    15446.44629602    43635.28069433        6.00000000      cm-1
   870    15448.97717979    43637.81157811        2.00000000      cm-1
   871    15454.47574020    43643.31013852       12.00000000      cm-1
   872    15468.62188676    43657.45628508        6.00000000      cm-1
   873    15476.03571703    43664.87011534       20.00000000      cm-1
   874    15483.98285849    43672.81725680       12.00000000      cm-1
   875    15493.39733568    43682.23173400       20.00000000      cm-1
   876    15504.44918167    43693.28357999       12.00000000      cm-1
   877    15548.62984553    43737.46424385       20.00000000      cm-1
   878    15554.42219395    43743.25659226        6.00000000      cm-1
   879    15566.41629624    43755.25069456        6.00000000      cm-1
   880    15587.79210989    43776.62650820        6.00000000      cm-1
   881    15595.66116242    43784.49556073       12.00000000      cm-1
   882    15616.45526449    43805.28966281       20.00000000      cm-1
   883    15616.58341614    43805.41781446       20.00000000      cm-1
   884    15617.49134478    43806.32574310       12.00000000      cm-1
   885    15627.30916031    43816.14355863       20.00000000      cm-1
   886    15636.61559845    43825.44999677       30.00000000      cm-1
   887    15638.36126178    43827.19566010       12.00000000      cm-1
   888    15640.38978324    43829.22418155       20.00000000      cm-1
   889    15711.69963451    43900.53403283       12.00000000      cm-1
   890    15722.45527561    43911.28967392       20.00000000      cm-1
   891    15730.88000236    43919.71440068       20.00000000      cm-1
   892    15732.28361832    43921.11801664       30.00000000      cm-1
   893    15747.07437785    43935.90877616       20.00000000      cm-1
   894    15813.56152608    44002.39592440       12.00000000      cm-1
   895    15814.12524797    44002.95964628       20.00000000      cm-1
   896    15824.11389329    44012.94829161       12.00000000      cm-1
   897    15865.56097266    44054.39537098       20.00000000      cm-1
   898    15889.95706048    44078.79145879       20.00000000      cm-1
   899    15942.84246617    44131.67686448       30.00000000      cm-1
   900    15980.04687760    44168.88127591       30.00000000      cm-1
   901    16000.55338810    44189.38778641       30.00000000      cm-1
   902    16068.68472503    44257.51912335       30.00000000      cm-1
   903    16085.41125463    44274.24565295       30.00000000      cm-1
   904    16102.13902841    44290.97342672       30.00000000      cm-1
   905    27077.51087107    55266.34526939        0.00000000      cm-1
   906    27121.08051730    55309.91491562        2.00000000      cm-1
   907    27144.24519976    55333.07959808        2.00000000      cm-1
   908    27157.11891739    55345.95331570        2.00000000      cm-1
   909    27218.51316669    55407.34756500        6.00000000      cm-1
   910    27258.17867979    55447.01307811        6.00000000      cm-1
   911    27275.84267353    55464.67707185        6.00000000      cm-1
   912    27286.60175056    55475.43614888        6.00000000      cm-1
   913    27293.28187218    55482.11627050        6.00000000      cm-1
   914    27429.03327661    55617.86767493       12.00000000      cm-1
   915    27462.12855173    55650.96295005       12.00000000      cm-1
   916    27479.56497969    55668.39937800       12.00000000      cm-1
   917    27489.98086563    55678.81526394       12.00000000      cm-1
   918    27703.43723238    55892.27163070       20.00000000      cm-1
   919    27731.18837568    55920.02277400       20.00000000      cm-1
   920    27746.73869805    55935.57309637       20.00000000      cm-1
   921    28037.44219793    56226.27659625       30.00000000      cm-1
   922    28060.16250734    56248.99690566       30.00000000      cm-1
   923    28425.98318879    56614.81758711       42.00000000      cm-1
 Analysis of SCF Wavefunction

 --------------------------------------------------------------

                    Orbital Energies (a.u.)
 --------------------------------------------------------------

 Alpha MOs
 -- Occupied --
 -0.914  -0.914  -0.515  -0.515  -0.516  -0.515  -0.517  -0.515
 -0.515  -0.516  -0.518  -0.517  -0.516  -0.518
 -- Virtual --
  0.861   1.017   0.996   1.036   0.908   1.015   1.049   1.070
  0.974   0.946   1.201   1.051   1.088   1.233

 Beta MOs
 -- Occupied --
 -0.914  -0.914
 -- Virtual --
  0.149   0.147   0.147   0.149   0.148   0.148   0.148   0.147
  0.150   0.149   0.147   0.149   1.043   1.178   1.161   1.194
  1.081   1.161   1.191   1.233   1.129   1.118   1.281   1.189
  1.233   1.299
 --------------------------------------------------------------

          Ground-State Mulliken Net Atomic Charges

     Atom                 Charge (a.u.)
  ----------------------------------------
      1 H                     0.000058
      2 H                     0.000040
      3 H                    -0.000019
      4 H                     0.000001
      5 H                    -0.000037
      6 H                     0.000033
      7 H                     0.000032
      8 H                    -0.000043
      9 H                     0.000072
     10 H                     0.000034
     11 H                    -0.000087
     12 H                    -0.000083
     13 He                    0.000000
     14 He                    0.000000
  ----------------------------------------
  Sum of atomic charges =     0.000000

 -----------------------------------------------------------------
                    Cartesian Multipole Moments
 -----------------------------------------------------------------
    Charge (ESU x 10^10)
                -0.0000
    Dipole Moment (Debye)
         X      -0.0000      Y      -0.0005      Z       0.0004
       Tot       0.0006
    Quadrupole Moments (Debye-Ang)
        XX     -19.6654     XY       0.0187     YY     -19.6151
        XZ      -0.0009     YZ      -0.0262     ZZ     -19.5108
    Octopole Moments (Debye-Ang^2)
       XXX     -19.5426    XXY     -32.7525    XYY      -4.8610
       YYY    -101.4551    XXZ     -22.8936    XYZ      -0.0169
       YYZ     -23.8685    XZZ      -4.1069    YZZ     -32.7522
       ZZZ     -70.7104
    Hexadecapole Moments (Debye-Ang^3)
      XXXX   -1643.0795   XXXY      -9.2803   XXYY    -555.1041
      XYYY      -8.3366   YYYY   -1675.6787   XXXZ       3.4366
      XXYZ    -213.8387   XYYZ       0.0861   YYYZ    -649.8175
      XXZZ    -491.0236   XYZZ      -2.6417   YYZZ    -504.7970
      XZZZ       4.4640   YZZZ    -645.1360   ZZZZ   -1318.2305
 -----------------------------------------------------------------
 JobOver = TRUE
Archival summary:
1\1\sinatra\SP\ROProcedureUnspecified\6-31G*\e212()\nmayhall\MonMar2016:11:002017MonMar2016:11:002017\0\\#,ROProcedureUnspecified,6-31G*,\\0,13\H\H,1,1.81065\H,1,1.81086,2,60.0452\H,2,1.81131,1,60.0237,3,-70.5123,0\H,1,2.76051,2,130.363,3,-30.4932,0\H,5,1.81039,1,163.962,2,-121.253,0\H,5,1.81121,1,117.208,2,162.903,0\H,7,1.8112,5,60.0005,1,91.4164,0\H,1,2.79771,2,124.735,3,141.325,0\H,9,1.8111,1,132.31,2,-175.664,0\H,10,1.8108,9,60.0291,1,-17.4875,0\H,9,1.81133,1,108.296,2,118.561,0\He,2,14.5499,1,125.447,3,67.3478,0\He,2,14.7797,1,125.568,3,-178.866,0\\HF=-11.4692715\\@

 Total job time:  0.52s(wall), 0.52s(cpu) 
 Mon Mar 20 16:11:00 2017

        *************************************************************
        *                                                           *
        *  Thank you very much for using Q-Chem.  Have a nice day.  *
        *                                                           *
        *************************************************************


*** MISSION COMPLETED -- STARFLEET OUT ***

