Jobname.Temp
SP        RO                            6-31G(d)            
Number of atoms                            I               14
Charge                                     I                0
Multiplicity                               I               13
Number of electrons                        I               16
Number of alpha electrons                  I               14
Number of beta electrons                   I                2
Atomic numbers                             I   N=          14
           1           1           1           1           1           1
           1           1           1           1           1           1
           2           2
Current cartesian coordinates              R   N=          42
 -1.39563833E+00 -1.02168043E+00  1.62062912E-01 -4.37169242E+00 -1.92275854E+00
 -1.26643776E+00 -3.96052581E+00  1.23869658E+00 -2.16562614E-02 -4.17712622E+00
 -1.42555270E+00  2.11639877E+00  2.79063416E+00  6.37221319E+00  1.85722284E-01
  3.18418852E-01  7.48373119E+00  2.27798925E+00  3.45574216E-01  4.22315994E+00
  1.24094535E+00 -4.09806007E-01  6.71850550E+00 -9.77800989E-01  6.59230959E+00
 -1.65451191E+00 -1.14970937E-01  4.33973715E+00  9.17991157E-01 -3.60937690E-03
  3.66531279E+00 -2.01588424E+00  1.62501329E+00  3.62048849E+00 -1.90796198E+00
 -1.79565556E+00  1.88972612E+01  1.88972612E+01  1.88972612E+01 -1.88972612E+01
  1.88972612E+01  1.88972612E+01
Nuclear charges                            R   N=          14
  1.00000000E+00  1.00000000E+00  1.00000000E+00  1.00000000E+00  1.00000000E+00
  1.00000000E+00  1.00000000E+00  1.00000000E+00  1.00000000E+00  1.00000000E+00
  1.00000000E+00  1.00000000E+00  2.00000000E+00  2.00000000E+00
Number of basis functions                  I               28
Number of contracted shells                I               28
Number of primitive shells                 I               56
Highest angular momentum                   I                0
Largest degree of contraction              I                3
Shell types                                I   N=          28
           0           0           0           0           0           0
           0           0           0           0           0           0
           0           0           0           0           0           0
           0           0           0           0           0           0
           0           0           0           0
Number of primitives per shell             I   N=          28
           3           1           3           1           3           1
           3           1           3           1           3           1
           3           1           3           1           3           1
           3           1           3           1           3           1
           3           1           3           1
Shell to atom map                          I   N=          28
           1           1           2           2           3           3
           4           4           5           5           6           6
           7           7           8           8           9           9
          10          10          11          11          12          12
          13          13          14          14
Primitive exponents                        R   N=          56
  1.87311370E+01  2.82539370E+00  6.40121700E-01  1.61277800E-01  1.87311370E+01
  2.82539370E+00  6.40121700E-01  1.61277800E-01  1.87311370E+01  2.82539370E+00
  6.40121700E-01  1.61277800E-01  1.87311370E+01  2.82539370E+00  6.40121700E-01
  1.61277800E-01  1.87311370E+01  2.82539370E+00  6.40121700E-01  1.61277800E-01
  1.87311370E+01  2.82539370E+00  6.40121700E-01  1.61277800E-01  1.87311370E+01
  2.82539370E+00  6.40121700E-01  1.61277800E-01  1.87311370E+01  2.82539370E+00
  6.40121700E-01  1.61277800E-01  1.87311370E+01  2.82539370E+00  6.40121700E-01
  1.61277800E-01  1.87311370E+01  2.82539370E+00  6.40121700E-01  1.61277800E-01
  1.87311370E+01  2.82539370E+00  6.40121700E-01  1.61277800E-01  1.87311370E+01
  2.82539370E+00  6.40121700E-01  1.61277800E-01  3.84216340E+01  5.77803000E+00
  1.24177400E+00  2.97964000E-01  3.84216340E+01  5.77803000E+00  1.24177400E+00
  2.97964000E-01
Contraction coefficients                   R   N=          56
  3.34945995E-02  2.34726947E-01  8.13757318E-01  1.00000000E+00  3.34945995E-02
  2.34726947E-01  8.13757318E-01  1.00000000E+00  3.34945995E-02  2.34726947E-01
  8.13757318E-01  1.00000000E+00  3.34945995E-02  2.34726947E-01  8.13757318E-01
  1.00000000E+00  3.34945995E-02  2.34726947E-01  8.13757318E-01  1.00000000E+00
  3.34945995E-02  2.34726947E-01  8.13757318E-01  1.00000000E+00  3.34945995E-02
  2.34726947E-01  8.13757318E-01  1.00000000E+00  3.34945995E-02  2.34726947E-01
  8.13757318E-01  1.00000000E+00  3.34945995E-02  2.34726947E-01  8.13757318E-01
  1.00000000E+00  3.34945995E-02  2.34726947E-01  8.13757318E-01  1.00000000E+00
  3.34945995E-02  2.34726947E-01  8.13757318E-01  1.00000000E+00  3.34945995E-02
  2.34726947E-01  8.13757318E-01  1.00000000E+00  4.01397393E-02  2.61246097E-01
  7.93184625E-01  1.00000000E+00  4.01397393E-02  2.61246097E-01  7.93184625E-01
  1.00000000E+00
Coordinates of each shell                  R   N=          84
 -1.39563833E+00 -1.02168043E+00  1.62062912E-01 -1.39563833E+00 -1.02168043E+00
  1.62062912E-01 -4.37169242E+00 -1.92275854E+00 -1.26643776E+00 -4.37169242E+00
 -1.92275854E+00 -1.26643776E+00 -3.96052581E+00  1.23869658E+00 -2.16562614E-02
 -3.96052581E+00  1.23869658E+00 -2.16562614E-02 -4.17712622E+00 -1.42555270E+00
  2.11639877E+00 -4.17712622E+00 -1.42555270E+00  2.11639877E+00  2.79063416E+00
  6.37221319E+00  1.85722284E-01  2.79063416E+00  6.37221319E+00  1.85722284E-01
  3.18418852E-01  7.48373119E+00  2.27798925E+00  3.18418852E-01  7.48373119E+00
  2.27798925E+00  3.45574216E-01  4.22315994E+00  1.24094535E+00  3.45574216E-01
  4.22315994E+00  1.24094535E+00 -4.09806007E-01  6.71850550E+00 -9.77800989E-01
 -4.09806007E-01  6.71850550E+00 -9.77800989E-01  6.59230959E+00 -1.65451191E+00
 -1.14970937E-01  6.59230959E+00 -1.65451191E+00 -1.14970937E-01  4.33973715E+00
  9.17991157E-01 -3.60937690E-03  4.33973715E+00  9.17991157E-01 -3.60937690E-03
  3.66531279E+00 -2.01588424E+00  1.62501329E+00  3.66531279E+00 -2.01588424E+00
  1.62501329E+00  3.62048849E+00 -1.90796198E+00 -1.79565556E+00  3.62048849E+00
 -1.90796198E+00 -1.79565556E+00  1.88972612E+01  1.88972612E+01  1.88972612E+01
  1.88972612E+01  1.88972612E+01  1.88972612E+01 -1.88972612E+01  1.88972612E+01
  1.88972612E+01 -1.88972612E+01  1.88972612E+01  1.88972612E+01
SCF Energy                                 R     -1.146988395158247E+01
Number of independent functions            I               28
Alpha MO coefficients                      R   N=         784
  2.77126425E-21 -4.54364011E-21 -5.37365818E-21  5.99620473E-21 -2.71343343E-21
  6.15998681E-21  1.46622363E-22 -3.20983524E-21 -1.82338241E-21  3.22000043E-21
  4.23913527E-21 -7.28367548E-21 -6.81002021E-21  1.09234042E-20  3.50659790E-21
 -6.54411548E-21  2.98556744E-21 -1.33259582E-21 -5.34359651E-21  6.92923128E-21
  5.55660387E-21 -7.26133002E-21  8.30196280E-21 -1.03808657E-20 -5.92081261E-01
 -5.13586011E-01  1.80098533E-21 -1.85980311E-21  2.93213575E-16  8.62551706E-16
 -2.73046363E-17 -4.92735716E-17 -3.22986523E-16 -5.10281399E-16  6.19046680E-17
 -1.53178660E-16 -8.40326408E-17 -4.25822053E-16  2.60795532E-16  6.21130603E-16
 -1.17481457E-17 -1.49838692E-16 -2.32514717E-17 -1.38663624E-16 -5.99910439E-17
 -1.10416924E-16 -1.13249857E-16 -6.55573122E-16  4.72948670E-16  2.83128623E-16
  2.77061140E-16  4.05267029E-17 -1.18276966E-17  1.22097481E-17 -5.92081261E-01
 -5.13586011E-01  7.35265501E-03  4.19948257E-03 -7.44453796E-04 -5.33436170E-04
 -1.00979618E-03 -3.83160349E-04 -7.43336106E-04 -5.00930790E-04  1.85991432E-03
  1.12028201E-03 -9.13490281E-04 -3.06124515E-04  3.69487311E-03  1.96769007E-03
 -4.80729761E-04 -5.31214277E-04  4.43825304E-01  7.24092602E-01 -1.67704432E-02
 -9.02281861E-02 -1.67730476E-02 -8.97249515E-02 -1.66453534E-02 -8.98436761E-02
 -1.68330222E-18 -1.46013816E-18  9.74811226E-17  8.45575500E-17 -2.45356449E-03
 -9.94644654E-04  8.24774199E-04  3.59725211E-04 -2.31078699E-03 -2.18444627E-03
  3.54336773E-04  4.79224751E-04  1.63877407E-02  8.97377049E-02 -4.43635303E-01
 -7.24308693E-01  1.69933563E-02  9.02713327E-02  1.60067735E-02  9.00611364E-02
  9.42712351E-04  2.33656772E-04 -5.14354749E-03 -3.48937270E-03  5.59101434E-05
  4.73783275E-04  3.55365856E-04  5.32760522E-04 -1.57390492E-17 -1.36524427E-17
  3.71249167E-16  3.22030760E-16  1.68356117E-02  9.02887912E-02 -4.43657065E-01
 -7.24285424E-01  1.65598733E-02  9.00284121E-02  1.59738215E-02  8.97772270E-02
  1.01317806E-03  1.78713402E-04  7.35325794E-04  3.58251585E-04 -5.54512898E-03
 -3.25167606E-03 -7.60604705E-04  5.03489546E-04  8.92595020E-04  6.32025368E-04
 -9.95810364E-04  7.86978554E-05 -2.49954167E-03 -1.89309848E-03 -5.28943057E-04
 -2.04469684E-03 -2.39650027E-18 -2.07878391E-18  2.12101952E-16  1.83982508E-16
 -8.11922659E-03 -1.70886959E-02 -4.31620331E-04  3.03373607E-03  7.25788208E-04
  2.50035504E-03  1.67714501E-03  2.11466365E-03  1.68262531E-03  1.19995643E-03
 -4.88650852E-04 -5.66982607E-04  1.55141010E-03  2.37271665E-03 -5.27760805E-04
 -4.68047233E-04 -1.62302949E-02 -8.97441228E-02 -1.60970503E-02 -9.02309526E-02
 -1.53187109E-02 -8.98794333E-02  4.43854235E-01  7.24879789E-01  7.22458890E-18
  6.26678810E-18 -3.90426129E-17 -3.38665334E-17 -4.45384897E-01 -7.25224472E-01
  1.61909206E-02  9.00590581E-02  1.54513476E-02  8.96935867E-02  1.59667594E-02
  9.01423239E-02 -6.44634874E-04 -2.14979428E-03 -1.50518381E-03 -1.64502848E-03
  7.91834704E-03  1.35488991E-02 -6.10564064E-04 -2.24162438E-03 -4.80651162E-03
 -6.06451036E-03  4.46016427E-03  1.21258966E-03  9.79937041E-03  1.72279728E-02
  9.27336653E-03  1.42268431E-02  3.10662914E-17  2.69476738E-17  5.61180181E-16
  4.86781646E-16  1.57568178E-02  9.00001103E-02  1.61948651E-02  8.99179176E-02
 -4.44202781E-01 -7.24880851E-01  1.60053528E-02  9.01307283E-02 -2.41390256E-03
 -2.88743020E-03 -7.72387218E-04 -3.52584462E-03  9.26237548E-03  1.97045431E-02
  4.76726198E-03 -4.64546078E-04  1.07223168E-03  5.96904513E-04 -6.00640570E-04
 -7.49223959E-04 -2.45499885E-03 -1.77754347E-03 -1.76520474E-03 -1.59218383E-03
 -2.13924751E-17 -1.85563650E-17 -2.64952804E-16 -2.29826652E-16  1.65782775E-02
  9.02693169E-02  1.59574604E-02  8.97716895E-02  1.63163945E-02  9.01070453E-02
 -4.43477467E-01 -7.24400673E-01  4.88471369E-04  3.52850909E-04  4.56965694E-04
  3.37425653E-04 -2.05702877E-03 -3.39207862E-03 -1.32930473E-03  6.87189923E-04
  8.91575815E-04  5.86548302E-04 -1.04449988E-03  1.74325103E-04 -3.52568360E-04
 -2.55541796E-03 -2.64296779E-03 -1.33671731E-03  1.57586504E-17  1.36694453E-17
  7.29324139E-17  6.32633896E-17  1.02446571E-03  1.98264540E-03  1.47644200E-04
 -1.69628230E-04 -3.77555760E-03 -6.32962614E-04  9.04177584E-04 -5.29698142E-04
 -1.64295128E-02 -8.98839608E-02 -1.59488183E-02 -9.00758164E-02 -1.63521311E-02
 -9.02005904E-02  4.43533331E-01  7.24386723E-01 -6.35001598E-04 -3.57004876E-04
  3.35764495E-03  3.66400006E-03  2.98337822E-04 -7.06177900E-04 -5.02283707E-04
 -4.01682464E-04 -6.77855294E-19 -5.87988519E-19  1.91501299E-16  1.66112990E-16
 -8.74815313E-03 -2.02256771E-02  1.48179059E-03  2.76618678E-03  1.37193572E-03
  2.64041374E-03 -6.49784060E-04  3.56031655E-03  2.04942426E-03  1.22329966E-03
 -3.11016389E-04 -4.30885580E-04 -8.91956558E-04  1.92890066E-03  1.50709552E-04
 -7.00696614E-04 -1.63127744E-02 -8.95496961E-02 -1.58370245E-02 -9.03592137E-02
  4.43970796E-01  7.25021319E-01 -1.52870772E-02 -8.99206826E-02  2.21246858E-17
  1.91915027E-17 -1.14745941E-16 -9.95334829E-17  1.63994119E-03  1.35847865E-03
 -1.03791588E-03 -2.30061558E-04  4.02164520E-03  1.73267350E-03 -3.14341760E-04
 -5.36182613E-04  4.44014418E-01  7.24322974E-01 -1.61766831E-02 -8.96874672E-02
 -1.57782007E-02 -9.01113623E-02 -1.62647631E-02 -8.98332212E-02  8.97558462E-04
  1.84411798E-03 -8.34073630E-03 -1.21424883E-02  1.36824139E-03  1.63719772E-03
  8.81439876E-04  1.72859504E-03 -9.86612100E-19 -8.55811831E-19  1.72240497E-16
  1.49405691E-16  2.54052882E-03  3.85205467E-03 -5.67837591E-04 -3.84122080E-04
 -1.17320327E-04 -1.40546155E-03 -6.07507330E-04 -3.69299667E-04  9.35390239E-03
  1.03310731E-02 -3.07722961E-03 -4.96418709E-03  1.04667999E-02  2.06199265E-02
 -1.39533436E-03 -5.16659786E-03  1.62040298E-02  9.00856895E-02 -4.44854320E-01
 -7.25135396E-01  1.57430318E-02  9.01404006E-02  1.59472434E-02  8.99546647E-02
 -6.47590918E-17 -5.61736468E-17 -4.69823680E-16 -4.07536745E-16 -8.99520021E-03
 -1.17348522E-02  3.41884563E-03  4.83003164E-03 -9.65783559E-03 -1.87878492E-02
  1.20677047E-04  5.11760186E-03 -1.53180225E-02 -9.01049356E-02 -1.62504850E-02
 -9.00009744E-02  4.45500171E-01  7.25675986E-01 -1.57553886E-02 -9.01552731E-02
  2.29408400E-03  2.94279876E-03 -9.73731228E-03 -2.18992257E-02 -1.99069014E-03
  2.92308315E-03  3.06235041E-04  3.40519837E-03  9.05825786E-17  7.85735816E-17
  1.90936273E-16  1.65622872E-16 -6.29006926E-01  6.33546769E-01  2.89381909E-01
 -3.61562961E-01 -1.51707508E-01  1.08221397E-01  1.65123981E-01 -2.22152512E-01
 -5.45913633E-02  1.42355874E-02  2.68837250E-01 -3.37243351E-01 -6.50339923E-01
  6.52987867E-01  1.26922174E-01 -1.78084517E-01  4.18820173E-01 -5.17945646E-01
 -4.67851603E-01  4.39654076E-01 -2.43488950E-01  1.97926594E-01 -1.41616443E-01
  8.78586431E-02  1.82857892E-16 -1.88053785E-16  1.27019047E-16 -6.31730404E-17
 -3.49726084E-01  3.63293069E-01  1.36354323E-01 -1.73353494E-01 -6.26739650E-02
  5.48992685E-02  1.37997524E-01 -1.75196651E-01  6.94439713E-01 -7.58162029E-01
 -2.72580904E-01  3.36124772E-01  3.91100936E-02 -3.13686505E-03 -2.66421193E-01
  3.29176627E-01  8.66201747E-02 -1.04290791E-01  6.63721717E-01 -7.54713757E-01
 -4.00614279E-01  4.41480983E-01 -3.96577078E-01  4.38891057E-01  4.73620368E-17
 -3.27335821E-17 -5.09786484E-16  6.84428630E-16 -3.59646705E-01  4.23684336E-01
 -2.45548435E-01  3.00524376E-01  8.19757181E-01 -9.14796488E-01 -9.22523153E-02
  1.23360005E-01 -3.48759507E-01  4.31153208E-01 -2.04382590E-01  2.63122367E-01
  3.87354117E-01 -3.96161456E-01  3.81891024E-01 -4.11154819E-01  3.19428707E-01
 -3.92319364E-01  8.05183249E-03 -3.17877282E-02 -2.24679981E-01  2.19907212E-01
 -2.93881518E-01  3.01797247E-01  2.48353889E-16 -2.20673440E-16 -2.53969794E-16
  2.94779863E-16  5.53419191E-02 -6.86000755E-02  4.97258706E-01 -5.85888708E-01
  1.10056698E-01 -1.34417914E-01 -6.68296648E-01  7.88420645E-01  1.19306642E-01
 -1.32682477E-01 -2.69829349E-01  3.24540286E-01 -1.34667530E-01  1.73798480E-01
  3.39416180E-01 -3.93333679E-01 -1.17858957E-01  1.42405551E-01  5.20489898E-02
 -6.10211695E-02 -5.29158931E-01  6.29846360E-01  6.19901756E-01 -7.25214404E-01
 -9.21244921E-16  9.45641014E-16 -2.18668838E-16  6.79831499E-17  5.56865583E-02
 -6.75701967E-02 -1.29858272E-01  1.53530375E-01 -1.60629599E-01  1.79235533E-01
  2.17061406E-01 -2.59527654E-01  2.42027668E-01 -2.98465618E-01 -7.38521101E-01
  8.70361675E-01 -3.38665732E-01  3.86491224E-01  7.67230326E-01 -9.22331182E-01
 -1.45316800E-01  1.73271350E-01 -7.53576931E-02  8.23023219E-02  4.00011450E-01
 -4.73172410E-01 -1.79460639E-01  2.16294933E-01 -1.04205791E-15  1.03468537E-15
 -2.76130329E-16  1.13916293E-16  6.04670535E-03 -3.11412584E-03  6.31167254E-01
 -7.52296948E-01  3.96444325E-02 -4.48090295E-02 -6.66410026E-01  7.96047128E-01
 -3.28942115E-02  4.05660229E-02  5.96085855E-02 -7.02513780E-02  4.30721412E-02
 -4.76373764E-02 -6.03654607E-02  7.32027273E-02  4.10356244E-02 -4.85569641E-02
  1.53179372E-02 -1.67488190E-02  5.93075734E-01 -7.06944801E-01 -6.44813275E-01
  7.70041365E-01  4.69663149E-16 -5.06406178E-16 -6.50232540E-17  1.99145234E-16
  4.24327652E-01 -5.27945935E-01 -5.67423252E-03  2.73574028E-03 -3.62348356E-01
  4.49422906E-01 -7.90211716E-02  9.23014557E-02 -6.47597033E-02 -1.83965818E-04
 -4.43023705E-01  4.68555071E-01  1.90163459E-01 -3.19517529E-01 -1.81216675E-01
  1.46955653E-01  1.03423371E+00 -1.12798223E+00 -1.13759843E-01  2.92789495E-01
 -4.97944519E-02  2.15645226E-01  6.79204247E-02  6.90976477E-02 -7.56556419E-16
  8.28842958E-16 -2.52569547E-16  4.24472012E-16 -3.35764501E-02  1.48964919E-01
  6.32854180E-01 -6.73446436E-01 -4.08340142E-01  6.22323561E-01  5.02714593E-01
 -5.13754722E-01 -6.92749626E-01  8.26922035E-01 -1.20349718E-01  1.17021843E-01
  3.74941066E-01 -5.01773393E-01  2.31816264E-01 -3.17094599E-01 -1.81815703E-01
  1.92129351E-01  2.84443985E-01 -3.80767053E-01 -2.15091070E-01  2.27441218E-01
 -1.00307771E-01  8.71695145E-02 -3.01207885E-16  3.05406072E-16 -1.23307366E-16
  1.18625007E-16  3.16264244E-01 -5.06024619E-01 -3.51099146E-01  3.47404440E-01
 -3.01150211E-01  2.72067398E-01 -2.68594251E-01  2.44985037E-01 -7.89690729E-02
  2.57841561E-01  6.35709491E-01 -6.42479767E-01 -2.04102065E-01  4.26233211E-01
  6.24557143E-01 -6.29810105E-01  2.24735640E-01 -2.27332480E-01  5.75349991E-01
 -6.78195966E-01 -2.04185466E-01  3.21937266E-01 -2.50799809E-01  3.77457743E-01
 -7.27113000E-16  7.00303616E-16  3.13323719E-16 -3.11061045E-16  2.32447570E-01
 -3.06409768E-03  5.23775428E-01 -3.91100416E-01  4.69428599E-01 -3.20923925E-01
  5.23083840E-01 -3.90119356E-01  4.97912160E-01 -4.02784527E-01  4.33733863E-01
 -3.20442016E-01  1.89991793E-01 -2.54513358E-04  3.43473807E-01 -2.04684126E-01
  3.58411842E-01 -2.74336613E-01  1.02066898E-01  6.11565941E-02  3.47783252E-01
 -2.60233453E-01  3.43530691E-01 -2.55016915E-01  2.23760298E-16 -1.23479806E-16
 -1.41937047E-15  1.29081876E-15 -5.64840522E-01  6.46299193E-01 -1.08629465E-01
  1.37246454E-02  2.10468726E-04 -1.37622862E-01 -9.32045333E-02 -6.45259782E-03
 -3.64736769E-01  3.37326124E-01 -1.24614305E-01  8.56748108E-03 -2.88443333E-01
  2.36332994E-01 -1.47995072E-01  3.98412842E-02  2.54433965E-01  3.01741585E-02
  7.18823979E-01 -6.03779194E-01  6.14354114E-01 -4.65439362E-01  5.83947584E-01
 -4.22281991E-01  4.50631987E-16 -4.90432505E-16 -1.04741616E-15  6.23502830E-16
  6.29508362E-01 -5.85705530E-01  1.80430645E-01  3.94578611E-02  5.79090810E-01
 -5.16494378E-01  2.46902441E-01 -4.85459699E-02 -3.52842824E-01  1.87490617E-01
 -1.97335591E-01 -2.65722014E-02 -8.12853957E-01  8.33662003E-01 -3.33541344E-01
  1.54930892E-01 -1.43855216E-02 -3.61199595E-03  2.72567859E-01 -4.12167046E-01
 -1.73778267E-01  2.27099850E-01 -2.15233503E-01  2.79601954E-01  3.12582904E-15
 -3.24651736E-15 -8.64440127E-16  1.04410803E-15 -6.98340163E-16  3.51869739E-16
 -5.12125746E-16 -1.64234978E-16 -2.69228752E-15  2.71715711E-15 -9.35909584E-16
  3.29911875E-16  1.50199051E-15 -9.19362184E-16 -5.94224385E-16  1.52266878E-15
  2.21975848E-15 -2.10291933E-15  2.61265703E-15 -2.25733699E-15  3.72230284E-16
 -4.04197032E-16 -7.16318176E-16  1.09627588E-15 -3.85909828E-16  4.50930571E-16
  1.19777629E-15 -1.42963276E-15  1.14981805E+00 -1.18695880E+00 -1.31385418E-10
  1.35629356E-10 -2.22933440E-16 -2.93876413E-16 -1.15267004E-15  9.08143622E-16
 -1.32267504E-15  1.20045555E-15 -9.09419570E-16  5.57130969E-16 -4.98703952E-16
  5.82412007E-16  5.91119977E-16 -5.64233367E-16  3.49403932E-16 -5.17133870E-16
  5.29985961E-17  8.62044644E-18 -1.08365309E-15  7.81661130E-16 -1.32741903E-15
  1.09105185E-15 -5.81467688E-16  2.59521699E-16 -4.18939956E-16  5.73100533E-17
 -1.31385978E-10  1.35629922E-10 -1.14981805E+00  1.18695880E+00
Beta MO coefficients                       R   N=         784
  2.77126425E-21 -4.54364011E-21 -5.37365818E-21  5.99620473E-21 -2.71343343E-21
  6.15998681E-21  1.46622363E-22 -3.20983524E-21 -1.82338241E-21  3.22000043E-21
  4.23913527E-21 -7.28367548E-21 -6.81002021E-21  1.09234042E-20  3.50659790E-21
 -6.54411548E-21  2.98556744E-21 -1.33259582E-21 -5.34359651E-21  6.92923128E-21
  5.55660387E-21 -7.26133002E-21  8.30196280E-21 -1.03808657E-20 -5.92081261E-01
 -5.13586011E-01  1.80098533E-21 -1.85980311E-21  2.93213575E-16  8.62551706E-16
 -2.73046363E-17 -4.92735716E-17 -3.22986523E-16 -5.10281399E-16  6.19046680E-17
 -1.53178660E-16 -8.40326408E-17 -4.25822053E-16  2.60795532E-16  6.21130603E-16
 -1.17481457E-17 -1.49838692E-16 -2.32514717E-17 -1.38663624E-16 -5.99910439E-17
 -1.10416924E-16 -1.13249857E-16 -6.55573122E-16  4.72948670E-16  2.83128623E-16
  2.77061140E-16  4.05267029E-17 -1.18276966E-17  1.22097481E-17 -5.92081261E-01
 -5.13586011E-01  7.35265501E-03  4.19948257E-03 -7.44453796E-04 -5.33436170E-04
 -1.00979618E-03 -3.83160349E-04 -7.43336106E-04 -5.00930790E-04  1.85991432E-03
  1.12028201E-03 -9.13490281E-04 -3.06124515E-04  3.69487311E-03  1.96769007E-03
 -4.80729761E-04 -5.31214277E-04  4.43825304E-01  7.24092602E-01 -1.67704432E-02
 -9.02281861E-02 -1.67730476E-02 -8.97249515E-02 -1.66453534E-02 -8.98436761E-02
 -1.68330222E-18 -1.46013816E-18  9.74811226E-17  8.45575500E-17 -2.45356449E-03
 -9.94644654E-04  8.24774199E-04  3.59725211E-04 -2.31078699E-03 -2.18444627E-03
  3.54336773E-04  4.79224751E-04  1.63877407E-02  8.97377049E-02 -4.43635303E-01
 -7.24308693E-01  1.69933563E-02  9.02713327E-02  1.60067735E-02  9.00611364E-02
  9.42712351E-04  2.33656772E-04 -5.14354749E-03 -3.48937270E-03  5.59101434E-05
  4.73783275E-04  3.55365856E-04  5.32760522E-04 -1.57390492E-17 -1.36524427E-17
  3.71249167E-16  3.22030760E-16  1.68356117E-02  9.02887912E-02 -4.43657065E-01
 -7.24285424E-01  1.65598733E-02  9.00284121E-02  1.59738215E-02  8.97772270E-02
  1.01317806E-03  1.78713402E-04  7.35325794E-04  3.58251585E-04 -5.54512898E-03
 -3.25167606E-03 -7.60604705E-04  5.03489546E-04  8.92595020E-04  6.32025368E-04
 -9.95810364E-04  7.86978554E-05 -2.49954167E-03 -1.89309848E-03 -5.28943057E-04
 -2.04469684E-03 -2.39650027E-18 -2.07878391E-18  2.12101952E-16  1.83982508E-16
 -8.11922659E-03 -1.70886959E-02 -4.31620331E-04  3.03373607E-03  7.25788208E-04
  2.50035504E-03  1.67714501E-03  2.11466365E-03  1.68262531E-03  1.19995643E-03
 -4.88650852E-04 -5.66982607E-04  1.55141010E-03  2.37271665E-03 -5.27760805E-04
 -4.68047233E-04 -1.62302949E-02 -8.97441228E-02 -1.60970503E-02 -9.02309526E-02
 -1.53187109E-02 -8.98794333E-02  4.43854235E-01  7.24879789E-01  7.22458890E-18
  6.26678810E-18 -3.90426129E-17 -3.38665334E-17 -4.45384897E-01 -7.25224472E-01
  1.61909206E-02  9.00590581E-02  1.54513476E-02  8.96935867E-02  1.59667594E-02
  9.01423239E-02 -6.44634874E-04 -2.14979428E-03 -1.50518381E-03 -1.64502848E-03
  7.91834704E-03  1.35488991E-02 -6.10564064E-04 -2.24162438E-03 -4.80651162E-03
 -6.06451036E-03  4.46016427E-03  1.21258966E-03  9.79937041E-03  1.72279728E-02
  9.27336653E-03  1.42268431E-02  3.10662914E-17  2.69476738E-17  5.61180181E-16
  4.86781646E-16  1.57568178E-02  9.00001103E-02  1.61948651E-02  8.99179176E-02
 -4.44202781E-01 -7.24880851E-01  1.60053528E-02  9.01307283E-02 -2.41390256E-03
 -2.88743020E-03 -7.72387218E-04 -3.52584462E-03  9.26237548E-03  1.97045431E-02
  4.76726198E-03 -4.64546078E-04  1.07223168E-03  5.96904513E-04 -6.00640570E-04
 -7.49223959E-04 -2.45499885E-03 -1.77754347E-03 -1.76520474E-03 -1.59218383E-03
 -2.13924751E-17 -1.85563650E-17 -2.64952804E-16 -2.29826652E-16  1.65782775E-02
  9.02693169E-02  1.59574604E-02  8.97716895E-02  1.63163945E-02  9.01070453E-02
 -4.43477467E-01 -7.24400673E-01  4.88471369E-04  3.52850909E-04  4.56965694E-04
  3.37425653E-04 -2.05702877E-03 -3.39207862E-03 -1.32930473E-03  6.87189923E-04
  8.91575815E-04  5.86548302E-04 -1.04449988E-03  1.74325103E-04 -3.52568360E-04
 -2.55541796E-03 -2.64296779E-03 -1.33671731E-03  1.57586504E-17  1.36694453E-17
  7.29324139E-17  6.32633896E-17  1.02446571E-03  1.98264540E-03  1.47644200E-04
 -1.69628230E-04 -3.77555760E-03 -6.32962614E-04  9.04177584E-04 -5.29698142E-04
 -1.64295128E-02 -8.98839608E-02 -1.59488183E-02 -9.00758164E-02 -1.63521311E-02
 -9.02005904E-02  4.43533331E-01  7.24386723E-01 -6.35001598E-04 -3.57004876E-04
  3.35764495E-03  3.66400006E-03  2.98337822E-04 -7.06177900E-04 -5.02283707E-04
 -4.01682464E-04 -6.77855294E-19 -5.87988519E-19  1.91501299E-16  1.66112990E-16
 -8.74815313E-03 -2.02256771E-02  1.48179059E-03  2.76618678E-03  1.37193572E-03
  2.64041374E-03 -6.49784060E-04  3.56031655E-03  2.04942426E-03  1.22329966E-03
 -3.11016389E-04 -4.30885580E-04 -8.91956558E-04  1.92890066E-03  1.50709552E-04
 -7.00696614E-04 -1.63127744E-02 -8.95496961E-02 -1.58370245E-02 -9.03592137E-02
  4.43970796E-01  7.25021319E-01 -1.52870772E-02 -8.99206826E-02  2.21246858E-17
  1.91915027E-17 -1.14745941E-16 -9.95334829E-17  1.63994119E-03  1.35847865E-03
 -1.03791588E-03 -2.30061558E-04  4.02164520E-03  1.73267350E-03 -3.14341760E-04
 -5.36182613E-04  4.44014418E-01  7.24322974E-01 -1.61766831E-02 -8.96874672E-02
 -1.57782007E-02 -9.01113623E-02 -1.62647631E-02 -8.98332212E-02  8.97558462E-04
  1.84411798E-03 -8.34073630E-03 -1.21424883E-02  1.36824139E-03  1.63719772E-03
  8.81439876E-04  1.72859504E-03 -9.86612100E-19 -8.55811831E-19  1.72240497E-16
  1.49405691E-16  2.54052882E-03  3.85205467E-03 -5.67837591E-04 -3.84122080E-04
 -1.17320327E-04 -1.40546155E-03 -6.07507330E-04 -3.69299667E-04  9.35390239E-03
  1.03310731E-02 -3.07722961E-03 -4.96418709E-03  1.04667999E-02  2.06199265E-02
 -1.39533436E-03 -5.16659786E-03  1.62040298E-02  9.00856895E-02 -4.44854320E-01
 -7.25135396E-01  1.57430318E-02  9.01404006E-02  1.59472434E-02  8.99546647E-02
 -6.47590918E-17 -5.61736468E-17 -4.69823680E-16 -4.07536745E-16 -8.99520021E-03
 -1.17348522E-02  3.41884563E-03  4.83003164E-03 -9.65783559E-03 -1.87878492E-02
  1.20677047E-04  5.11760186E-03 -1.53180225E-02 -9.01049356E-02 -1.62504850E-02
 -9.00009744E-02  4.45500171E-01  7.25675986E-01 -1.57553886E-02 -9.01552731E-02
  2.29408400E-03  2.94279876E-03 -9.73731228E-03 -2.18992257E-02 -1.99069014E-03
  2.92308315E-03  3.06235041E-04  3.40519837E-03  9.05825786E-17  7.85735816E-17
  1.90936273E-16  1.65622872E-16 -6.29006926E-01  6.33546769E-01  2.89381909E-01
 -3.61562961E-01 -1.51707508E-01  1.08221397E-01  1.65123981E-01 -2.22152512E-01
 -5.45913633E-02  1.42355874E-02  2.68837250E-01 -3.37243351E-01 -6.50339923E-01
  6.52987867E-01  1.26922174E-01 -1.78084517E-01  4.18820173E-01 -5.17945646E-01
 -4.67851603E-01  4.39654076E-01 -2.43488950E-01  1.97926594E-01 -1.41616443E-01
  8.78586431E-02  1.82857892E-16 -1.88053785E-16  1.27019047E-16 -6.31730404E-17
 -3.49726084E-01  3.63293069E-01  1.36354323E-01 -1.73353494E-01 -6.26739650E-02
  5.48992685E-02  1.37997524E-01 -1.75196651E-01  6.94439713E-01 -7.58162029E-01
 -2.72580904E-01  3.36124772E-01  3.91100936E-02 -3.13686505E-03 -2.66421193E-01
  3.29176627E-01  8.66201747E-02 -1.04290791E-01  6.63721717E-01 -7.54713757E-01
 -4.00614279E-01  4.41480983E-01 -3.96577078E-01  4.38891057E-01  4.73620368E-17
 -3.27335821E-17 -5.09786484E-16  6.84428630E-16 -3.59646705E-01  4.23684336E-01
 -2.45548435E-01  3.00524376E-01  8.19757181E-01 -9.14796488E-01 -9.22523153E-02
  1.23360005E-01 -3.48759507E-01  4.31153208E-01 -2.04382590E-01  2.63122367E-01
  3.87354117E-01 -3.96161456E-01  3.81891024E-01 -4.11154819E-01  3.19428707E-01
 -3.92319364E-01  8.05183249E-03 -3.17877282E-02 -2.24679981E-01  2.19907212E-01
 -2.93881518E-01  3.01797247E-01  2.48353889E-16 -2.20673440E-16 -2.53969794E-16
  2.94779863E-16  5.53419191E-02 -6.86000755E-02  4.97258706E-01 -5.85888708E-01
  1.10056698E-01 -1.34417914E-01 -6.68296648E-01  7.88420645E-01  1.19306642E-01
 -1.32682477E-01 -2.69829349E-01  3.24540286E-01 -1.34667530E-01  1.73798480E-01
  3.39416180E-01 -3.93333679E-01 -1.17858957E-01  1.42405551E-01  5.20489898E-02
 -6.10211695E-02 -5.29158931E-01  6.29846360E-01  6.19901756E-01 -7.25214404E-01
 -9.21244921E-16  9.45641014E-16 -2.18668838E-16  6.79831499E-17  5.56865583E-02
 -6.75701967E-02 -1.29858272E-01  1.53530375E-01 -1.60629599E-01  1.79235533E-01
  2.17061406E-01 -2.59527654E-01  2.42027668E-01 -2.98465618E-01 -7.38521101E-01
  8.70361675E-01 -3.38665732E-01  3.86491224E-01  7.67230326E-01 -9.22331182E-01
 -1.45316800E-01  1.73271350E-01 -7.53576931E-02  8.23023219E-02  4.00011450E-01
 -4.73172410E-01 -1.79460639E-01  2.16294933E-01 -1.04205791E-15  1.03468537E-15
 -2.76130329E-16  1.13916293E-16  6.04670535E-03 -3.11412584E-03  6.31167254E-01
 -7.52296948E-01  3.96444325E-02 -4.48090295E-02 -6.66410026E-01  7.96047128E-01
 -3.28942115E-02  4.05660229E-02  5.96085855E-02 -7.02513780E-02  4.30721412E-02
 -4.76373764E-02 -6.03654607E-02  7.32027273E-02  4.10356244E-02 -4.85569641E-02
  1.53179372E-02 -1.67488190E-02  5.93075734E-01 -7.06944801E-01 -6.44813275E-01
  7.70041365E-01  4.69663149E-16 -5.06406178E-16 -6.50232540E-17  1.99145234E-16
  4.24327652E-01 -5.27945935E-01 -5.67423252E-03  2.73574028E-03 -3.62348356E-01
  4.49422906E-01 -7.90211716E-02  9.23014557E-02 -6.47597033E-02 -1.83965818E-04
 -4.43023705E-01  4.68555071E-01  1.90163459E-01 -3.19517529E-01 -1.81216675E-01
  1.46955653E-01  1.03423371E+00 -1.12798223E+00 -1.13759843E-01  2.92789495E-01
 -4.97944519E-02  2.15645226E-01  6.79204247E-02  6.90976477E-02 -7.56556419E-16
  8.28842958E-16 -2.52569547E-16  4.24472012E-16 -3.35764501E-02  1.48964919E-01
  6.32854180E-01 -6.73446436E-01 -4.08340142E-01  6.22323561E-01  5.02714593E-01
 -5.13754722E-01 -6.92749626E-01  8.26922035E-01 -1.20349718E-01  1.17021843E-01
  3.74941066E-01 -5.01773393E-01  2.31816264E-01 -3.17094599E-01 -1.81815703E-01
  1.92129351E-01  2.84443985E-01 -3.80767053E-01 -2.15091070E-01  2.27441218E-01
 -1.00307771E-01  8.71695145E-02 -3.01207885E-16  3.05406072E-16 -1.23307366E-16
  1.18625007E-16  3.16264244E-01 -5.06024619E-01 -3.51099146E-01  3.47404440E-01
 -3.01150211E-01  2.72067398E-01 -2.68594251E-01  2.44985037E-01 -7.89690729E-02
  2.57841561E-01  6.35709491E-01 -6.42479767E-01 -2.04102065E-01  4.26233211E-01
  6.24557143E-01 -6.29810105E-01  2.24735640E-01 -2.27332480E-01  5.75349991E-01
 -6.78195966E-01 -2.04185466E-01  3.21937266E-01 -2.50799809E-01  3.77457743E-01