Jobname.Temp
SP        RO                            6-31G(d)            
Number of atoms                            I               14
Charge                                     I                0
Multiplicity                               I               13
Number of electrons                        I               16
Number of alpha electrons                  I               14
Number of beta electrons                   I                2
Atomic numbers                             I   N=          14
           1           1           1           1           1           1
           1           1           1           1           1           1
           2           2
Current cartesian coordinates              R   N=          42
 -1.39563833E+00 -1.02168043E+00  1.62062912E-01 -4.37169242E+00 -1.92275854E+00
 -1.26643776E+00 -3.96052581E+00  1.23869658E+00 -2.16562614E-02 -4.17712622E+00
 -1.42555270E+00  2.11639877E+00  2.79063416E+00  6.56118580E+00  1.85722284E-01
  3.18418852E-01  7.67270381E+00  2.27798925E+00  3.45574216E-01  4.41213256E+00
  1.24094535E+00 -4.09806007E-01  6.90747811E+00 -9.77800989E-01  6.59230959E+00
 -1.65451191E+00 -1.14970937E-01  4.33973715E+00  9.17991157E-01 -3.60937690E-03
  3.66531279E+00 -2.01588424E+00  1.62501329E+00  3.62048849E+00 -1.90796198E+00
 -1.79565556E+00  1.88972612E+01  1.88972612E+01  1.88972612E+01 -1.88972612E+01
  1.88972612E+01  1.88972612E+01
Nuclear charges                            R   N=          14
  1.00000000E+00  1.00000000E+00  1.00000000E+00  1.00000000E+00  1.00000000E+00
  1.00000000E+00  1.00000000E+00  1.00000000E+00  1.00000000E+00  1.00000000E+00
  1.00000000E+00  1.00000000E+00  2.00000000E+00  2.00000000E+00
Number of basis functions                  I               28
Number of contracted shells                I               28
Number of primitive shells                 I               56
Highest angular momentum                   I                0
Largest degree of contraction              I                3
Shell types                                I   N=          28
           0           0           0           0           0           0
           0           0           0           0           0           0
           0           0           0           0           0           0
           0           0           0           0           0           0
           0           0           0           0
Number of primitives per shell             I   N=          28
           3           1           3           1           3           1
           3           1           3           1           3           1
           3           1           3           1           3           1
           3           1           3           1           3           1
           3           1           3           1
Shell to atom map                          I   N=          28
           1           1           2           2           3           3
           4           4           5           5           6           6
           7           7           8           8           9           9
          10          10          11          11          12          12
          13          13          14          14
Primitive exponents                        R   N=          56
  1.87311370E+01  2.82539370E+00  6.40121700E-01  1.61277800E-01  1.87311370E+01
  2.82539370E+00  6.40121700E-01  1.61277800E-01  1.87311370E+01  2.82539370E+00
  6.40121700E-01  1.61277800E-01  1.87311370E+01  2.82539370E+00  6.40121700E-01
  1.61277800E-01  1.87311370E+01  2.82539370E+00  6.40121700E-01  1.61277800E-01
  1.87311370E+01  2.82539370E+00  6.40121700E-01  1.61277800E-01  1.87311370E+01
  2.82539370E+00  6.40121700E-01  1.61277800E-01  1.87311370E+01  2.82539370E+00
  6.40121700E-01  1.61277800E-01  1.87311370E+01  2.82539370E+00  6.40121700E-01
  1.61277800E-01  1.87311370E+01  2.82539370E+00  6.40121700E-01  1.61277800E-01
  1.87311370E+01  2.82539370E+00  6.40121700E-01  1.61277800E-01  1.87311370E+01
  2.82539370E+00  6.40121700E-01  1.61277800E-01  3.84216340E+01  5.77803000E+00
  1.24177400E+00  2.97964000E-01  3.84216340E+01  5.77803000E+00  1.24177400E+00
  2.97964000E-01
Contraction coefficients                   R   N=          56
  3.34945995E-02  2.34726947E-01  8.13757318E-01  1.00000000E+00  3.34945995E-02
  2.34726947E-01  8.13757318E-01  1.00000000E+00  3.34945995E-02  2.34726947E-01
  8.13757318E-01  1.00000000E+00  3.34945995E-02  2.34726947E-01  8.13757318E-01
  1.00000000E+00  3.34945995E-02  2.34726947E-01  8.13757318E-01  1.00000000E+00
  3.34945995E-02  2.34726947E-01  8.13757318E-01  1.00000000E+00  3.34945995E-02
  2.34726947E-01  8.13757318E-01  1.00000000E+00  3.34945995E-02  2.34726947E-01
  8.13757318E-01  1.00000000E+00  3.34945995E-02  2.34726947E-01  8.13757318E-01
  1.00000000E+00  3.34945995E-02  2.34726947E-01  8.13757318E-01  1.00000000E+00
  3.34945995E-02  2.34726947E-01  8.13757318E-01  1.00000000E+00  3.34945995E-02
  2.34726947E-01  8.13757318E-01  1.00000000E+00  4.01397393E-02  2.61246097E-01
  7.93184625E-01  1.00000000E+00  4.01397393E-02  2.61246097E-01  7.93184625E-01
  1.00000000E+00
Coordinates of each shell                  R   N=          84
 -1.39563833E+00 -1.02168043E+00  1.62062912E-01 -1.39563833E+00 -1.02168043E+00
  1.62062912E-01 -4.37169242E+00 -1.92275854E+00 -1.26643776E+00 -4.37169242E+00
 -1.92275854E+00 -1.26643776E+00 -3.96052581E+00  1.23869658E+00 -2.16562614E-02
 -3.96052581E+00  1.23869658E+00 -2.16562614E-02 -4.17712622E+00 -1.42555270E+00
  2.11639877E+00 -4.17712622E+00 -1.42555270E+00  2.11639877E+00  2.79063416E+00
  6.56118580E+00  1.85722284E-01  2.79063416E+00  6.56118580E+00  1.85722284E-01
  3.18418852E-01  7.67270381E+00  2.27798925E+00  3.18418852E-01  7.67270381E+00
  2.27798925E+00  3.45574216E-01  4.41213256E+00  1.24094535E+00  3.45574216E-01
  4.41213256E+00  1.24094535E+00 -4.09806007E-01  6.90747811E+00 -9.77800989E-01
 -4.09806007E-01  6.90747811E+00 -9.77800989E-01  6.59230959E+00 -1.65451191E+00
 -1.14970937E-01  6.59230959E+00 -1.65451191E+00 -1.14970937E-01  4.33973715E+00
  9.17991157E-01 -3.60937690E-03  4.33973715E+00  9.17991157E-01 -3.60937690E-03
  3.66531279E+00 -2.01588424E+00  1.62501329E+00  3.66531279E+00 -2.01588424E+00
  1.62501329E+00  3.62048849E+00 -1.90796198E+00 -1.79565556E+00  3.62048849E+00
 -1.90796198E+00 -1.79565556E+00  1.88972612E+01  1.88972612E+01  1.88972612E+01
  1.88972612E+01  1.88972612E+01  1.88972612E+01 -1.88972612E+01  1.88972612E+01
  1.88972612E+01 -1.88972612E+01  1.88972612E+01  1.88972612E+01
SCF Energy                                 R     -1.147037866012476E+01
Number of independent functions            I               28
Alpha MO coefficients                      R   N=         784
 -3.55994775E-22  3.30994120E-22 -2.39337505E-21  3.00773072E-21 -9.21871120E-22
  9.59252520E-22  1.90365256E-21 -2.84820678E-21 -1.73077365E-22  6.17774372E-22
 -6.64175959E-22  8.08962298E-22 -2.13960277E-22 -2.11752233E-22 -5.26196325E-22
  2.05506160E-22 -3.20117332E-22  3.24363577E-22  7.41156221E-23 -3.30413338E-22
 -8.52577916E-22  6.85120931E-22 -1.51706933E-22  6.28891675E-22 -5.92081261E-01
 -5.13586011E-01 -6.10313087E-22  6.30072668E-22 -3.33342784E-18  7.44630762E-17
 -7.29532473E-19  1.28001572E-16  8.28554903E-17 -6.97487679E-17  9.11756533E-17
  7.63585820E-17  1.02869431E-16 -6.87898805E-17  9.64396051E-17  6.93653508E-17
 -5.91113751E-17  1.26762395E-16 -3.61785565E-18 -4.94025889E-17 -5.79623399E-17
  6.38244869E-17 -5.21551008E-18  3.08431980E-17 -5.29712028E-17  2.97823817E-17
  6.32307170E-17 -6.28201790E-17 -5.18895029E-17  5.35656070E-17 -5.92081261E-01
 -5.13586011E-01  7.40354887E-03  4.18829458E-03 -7.61293489E-04 -5.21496464E-04
 -9.65346456E-04 -3.89576044E-04 -7.48276866E-04 -4.98961833E-04  1.68647502E-03
  7.39831912E-04 -8.45395187E-04 -1.81378200E-04  3.46754541E-03  1.59357802E-03
 -4.59287972E-04 -3.97273280E-04  4.43822497E-01  7.24075676E-01 -1.66720909E-02
 -9.01494348E-02 -1.67742972E-02 -8.97357174E-02 -1.66581114E-02 -8.98467336E-02
 -6.77458950E-18 -5.87644701E-18 -6.27134198E-17 -8.82083558E-17  2.20686187E-03
  6.21888271E-04 -7.80190357E-04 -2.27969386E-04  2.31504760E-03  1.83960795E-03
 -3.38975787E-04 -3.78629924E-04 -1.63072432E-02 -8.97208087E-02  4.43618402E-01
  7.24283241E-01 -1.68192140E-02 -9.01494883E-02 -1.60184030E-02 -9.00725579E-02
 -8.71391755E-04 -1.23737333E-04  4.85499713E-03  2.66863878E-03 -9.04249039E-05
 -3.79171130E-04 -3.68881906E-04 -3.88240356E-04  2.73414588E-17  2.37166603E-17
 -7.05221963E-17 -9.23632080E-17  1.67353631E-02  9.02674565E-02 -4.43632715E-01
 -7.24286301E-01  1.64715050E-02  8.99857887E-02  1.59865847E-02  8.97852601E-02
  9.36022845E-04  6.84993471E-05  7.06399565E-04  2.26628730E-04 -5.20822207E-03
 -2.49886529E-03 -6.52691373E-04  4.77581373E-04  9.09717784E-04  6.21026084E-04
 -1.07622646E-03  7.80693816E-05 -2.50948790E-03 -1.88196287E-03 -5.21265804E-04
 -2.04642807E-03 -2.43433628E-17 -2.11160361E-17 -9.15306860E-18  2.78169430E-17
  2.68237232E-03  3.95728371E-03 -6.15112802E-04 -4.09455392E-04 -9.06776183E-06
 -1.28058675E-03 -6.10897853E-04 -4.14179545E-04  8.55095227E-03  7.50418042E-03
 -2.92076584E-03 -4.00304149E-03  1.01304399E-02  1.79775507E-02 -1.37945494E-03
 -4.30611938E-03  1.62020808E-02  9.00948764E-02 -4.44600227E-01 -7.24861889E-01
  1.57719351E-02  9.01011030E-02  1.59490540E-02  8.99364825E-02  4.72021841E-17
  4.09443470E-17  7.49752641E-17  1.03766153E-16 -8.08500566E-03 -1.70880733E-02
 -4.41069329E-04  3.03707891E-03  7.44748504E-04  2.51190198E-03  1.67568518E-03
  2.11170943E-03  1.56346355E-03  7.94976619E-04 -4.81848326E-04 -4.20737638E-04
  1.57357307E-03  2.03716984E-03 -4.80225638E-04 -3.64712713E-04 -1.62455547E-02
 -8.97407259E-02 -1.60257318E-02 -9.01702017E-02 -1.53202002E-02 -8.98855831E-02
  4.43861202E-01  7.24858575E-01  4.97574395E-18  4.31608353E-18 -3.21289665E-17
 -6.40902951E-17 -1.58639445E-02 -9.01113540E-02 -1.61880833E-02 -8.99096224E-02
  4.44136933E-01  7.24726796E-01 -1.60205634E-02 -9.00864529E-02  2.26211680E-03
  2.43875377E-03  8.62097896E-04  3.05137835E-03 -9.03018745E-03 -1.75660826E-02
 -4.26312078E-03  1.00720528E-03 -1.04659827E-03 -5.85138761E-04  5.07091622E-04
  6.05308610E-04  2.42628923E-03  1.80845918E-03  1.76648769E-03  1.61847985E-03
  5.21448653E-17  4.52317530E-17  4.35234583E-18 -3.48956987E-17 -1.65341220E-02
 -9.02329270E-02 -1.59760617E-02 -8.97694551E-02 -1.62737825E-02 -9.00718481E-02
  4.43486791E-01  7.24374686E-01 -4.70456703E-04 -2.56261117E-04 -4.37219957E-04
 -2.52932082E-04  2.08212304E-03  2.81979209E-03  1.14646584E-03 -6.65903145E-04
 -9.00125502E-04 -5.85513150E-04  1.07667847E-03 -1.48094603E-04  3.60811087E-04
  2.54513117E-03  2.64064557E-03  1.33201449E-03 -3.65373041E-17 -3.16933663E-17
 -5.38272969E-17 -8.28636850E-17 -1.04642927E-03 -1.46342407E-03 -1.11765633E-04
  1.91560037E-04  3.28828688E-03  2.13249113E-05 -7.73368485E-04  5.33715626E-04
  1.63520106E-02  8.98740096E-02  1.59774059E-02  9.00724086E-02  1.63041362E-02
  9.01161413E-02 -4.43530569E-01 -7.24356078E-01  5.96901766E-04  2.50747939E-04
 -3.22426754E-03 -2.92508225E-03 -2.13757514E-04  5.90264840E-04  4.64137512E-04
  3.01064740E-04  2.38634834E-17  2.06997782E-17 -6.62687001E-17 -2.57562777E-17
  8.75131357E-03  2.02100616E-02 -1.48416229E-03 -2.75784577E-03 -1.35577838E-03
 -2.66101836E-03  6.46242207E-04 -3.55335578E-03 -1.88896912E-03 -7.75644798E-04
  3.11829043E-04  3.46313342E-04  5.88587794E-04 -1.86798300E-03 -8.88854029E-05
  5.92501530E-04  1.63198191E-02  8.95519375E-02  1.58040734E-02  9.03064182E-02
 -4.43982090E-01 -7.25001231E-01  1.52917823E-02  8.99251101E-02  5.63405773E-17
  4.88712190E-17 -1.94295791E-17  1.99505755E-17 -1.50168689E-03 -9.64957606E-04
  9.56036456E-04  1.13310256E-04 -3.76906748E-03 -1.38937971E-03  3.13505167E-04
  4.15654671E-04 -4.43890484E-01 -7.24250220E-01  1.61670618E-02  8.96974705E-02
  1.58169529E-02  9.01629498E-02  1.62353270E-02  8.98431285E-02 -8.11512964E-04
 -1.38679686E-03  7.52720451E-03  9.13300851E-03 -1.25853511E-03 -1.17141632E-03
 -8.26673515E-04 -1.28964956E-03 -2.49438443E-17 -2.16369131E-17  6.52523945E-17
  8.88985384E-17  8.26453075E-03  8.77351951E-03 -3.21570916E-03 -3.91808170E-03
  9.43163096E-03  1.66745406E-02 -2.49465999E-04 -4.39969089E-03  1.54511432E-02
  9.02002376E-02  1.62516272E-02  8.99746259E-02 -4.45222398E-01 -7.25192969E-01
  1.58306060E-02  9.00714053E-02 -2.15295995E-03 -2.48319970E-03  9.45358669E-03
  1.91734733E-02  1.65473637E-03 -2.79075722E-03 -3.84706691E-04 -2.98356852E-03
 -7.54809230E-17 -6.54740275E-17 -4.10883400E-17  1.80075287E-18 -4.45280273E-01
 -7.25121959E-01  1.61682818E-02  9.00718216E-02  1.55554173E-02  8.98075023E-02
  1.59813702E-02  9.01039992E-02 -5.94791413E-04 -1.67401936E-03 -1.33901602E-03
 -1.20706031E-03  7.17991798E-03  1.04208761E-02 -6.52704008E-04 -1.73083558E-03
 -4.83693329E-03 -6.07018760E-03  4.58574187E-03  1.35604359E-03  9.82609463E-03
  1.71921685E-02  9.26754154E-03  1.42043991E-02 -1.44880735E-18 -1.25673342E-18
 -2.09194326E-17  2.48109120E-17  6.14868044E-01 -6.22025833E-01 -2.88954559E-01
  3.62538580E-01  1.74903695E-01 -1.36369924E-01 -1.74684354E-01  2.34047273E-01
  5.42206132E-02 -1.49302120E-02 -2.67850064E-01  3.37783586E-01  6.55965643E-01
 -6.64865940E-01 -1.32445955E-01  1.85642803E-01 -4.14353200E-01  5.13365055E-01
  4.86043720E-01 -4.64627567E-01  2.24614032E-01 -1.77642764E-01  1.32602878E-01
 -7.82250845E-02 -3.45736216E-16  3.57027912E-16  2.31348398E-16 -2.09524400E-16
 -4.81417268E-01  5.19686795E-01  4.79511564E-02 -6.41556997E-02  2.48791757E-01
 -2.90514376E-01  1.01167371E-01 -1.25466216E-01  4.92586185E-01 -5.24784512E-01
 -3.11687148E-01  3.88937387E-01  1.92856126E-01 -1.68931821E-01 -1.28334505E-01
  1.78605134E-01  2.20953749E-01 -2.69038028E-01  5.97450652E-01 -6.94257326E-01
 -4.66499347E-01  5.01641085E-01 -4.84652645E-01  5.25375991E-01 -2.38694564E-16
  2.54040479E-16  4.05958488E-16 -4.74870022E-16  2.12309135E-01 -2.64494114E-01
  2.70270285E-01 -3.33389104E-01 -7.74399594E-01  8.62196725E-01  1.37756111E-01
 -1.80013468E-01  6.05900043E-01 -7.10178739E-01  6.72068163E-02 -9.17485967E-02
 -3.49552771E-01  3.77159618E-01 -4.31332991E-01  4.82990637E-01 -2.71935794E-01
  3.34923494E-01  2.55132701E-01 -2.71816419E-01  6.05655267E-02 -3.93315028E-02
  1.19588666E-01 -1.08803738E-01  1.26011764E-16 -3.91310814E-17 -2.76256187E-16
  3.09801894E-16  4.15846075E-02 -5.17990986E-02  5.11707307E-01 -6.03332966E-01
  1.14499225E-01 -1.38560454E-01 -6.72421659E-01  7.93521575E-01  1.05992998E-01
 -1.17974929E-01 -2.53038121E-01  3.04361600E-01 -1.11474764E-01  1.44576781E-01
  3.07287396E-01 -3.56284821E-01 -9.92357613E-02  1.19796414E-01  5.06588977E-02
 -5.93379356E-02 -5.51090147E-01  6.54686608E-01  6.19401878E-01 -7.26198842E-01
 -7.11774649E-16  6.96627869E-16 -7.55812554E-16  9.94005570E-16 -4.94536479E-02
  5.85420947E-02  1.38021841E-01 -1.62898899E-01  1.31394854E-01 -1.45744768E-01
 -2.04057836E-01  2.43976916E-01 -2.47772490E-01  3.01858444E-01  7.67215960E-01
 -9.06203886E-01  3.17339066E-01 -3.65471290E-01 -7.87987915E-01  9.43696571E-01
  1.34459531E-01 -1.60422855E-01  5.80130186E-02 -6.29968749E-02 -3.48172338E-01
  4.11139058E-01  1.53816390E-01 -1.85582936E-01 -1.02283937E-15  1.08742128E-15
  8.65856742E-17 -9.76819713E-17  7.74901199E-03 -5.26539898E-03  6.28865665E-01
 -7.49476134E-01  3.14148221E-02 -3.53729114E-02 -6.57703524E-01  7.85716053E-01
 -2.78458295E-02  3.40133897E-02  4.09712940E-02 -4.83588295E-02  3.27300018E-02
 -3.64716971E-02 -3.98618819E-02  4.82744568E-02  3.61028577E-02 -4.27051120E-02
  1.18505588E-02 -1.29289219E-02  6.05458456E-01 -7.21697070E-01 -6.49174233E-01
  7.75275588E-01 -7.02274097E-16  7.59625573E-16  8.90490256E-16 -5.63572743E-16
 -4.19143901E-01  5.40613261E-01  1.39566303E-01 -1.48404487E-01  2.47687184E-01
 -2.86663131E-01  1.77759404E-01 -1.94948837E-01 -1.04759645E-01  1.98747049E-01
  4.07581292E-01 -4.33695641E-01 -1.17372574E-01  2.19346711E-01  2.54355284E-01
 -2.45703014E-01 -1.04030805E+00  1.13291474E+00  1.99720849E-01 -3.98738847E-01
 -1.58640466E-02 -1.38499324E-01 -9.88527794E-02 -3.44295736E-02  4.84608581E-16
 -4.62125188E-16  6.90073274E-16 -4.54997875E-16  9.19253309E-02 -3.02069074E-02
  5.61239138E-01 -6.03227543E-01 -5.29916337E-01  7.48499172E-01  4.38653129E-01
 -4.53261112E-01 -7.00164830E-01  8.27134009E-01 -1.56275419E-01  1.56278577E-01
  3.88257023E-01 -5.21044022E-01  2.30662379E-01 -3.19132884E-01  8.28142308E-02
 -9.23734533E-02  3.02922530E-01 -3.58318605E-01 -2.24665954E-01  2.84640968E-01
 -9.87678605E-02  1.30375578E-01 -2.71995467E-15  2.83029483E-15 -2.56066154E-16
  8.73897483E-17  3.12111398E-01 -5.10341098E-01 -4.14594533E-01  4.13629108E-01
 -2.47880114E-01  1.93603578E-01 -3.29757217E-01  3.08569050E-01 -2.10973367E-02
  1.75459931E-01  6.22751248E-01 -6.31396062E-01 -2.55872345E-01  4.79664725E-01
  5.86149792E-01 -5.86791430E-01  2.54648979E-01 -2.60352176E-01  5.57895746E-01
 -6.48202318E-01 -1.96331081E-01  3.15848285E-01 -2.43213545E-01  3.71465345E-01
  6.49425520E-16 -7.10213957E-16 -3.92983527E-16  4.28312795E-16 -2.38454597E-01
  1.00260448E-02 -5.25983782E-01  3.92566054E-01 -4.67503585E-01  3.17263118E-01
 -5.24639591E-01  3.90760979E-01 -4.88798268E-01  3.86078336E-01 -4.44464495E-01
  3.29526292E-01 -1.96887302E-01  5.69839189E-03 -3.62818127E-01  2.25108414E-01
 -3.49905237E-01  2.67046890E-01 -1.12201632E-01 -4.21118479E-02 -3.34189582E-01
  2.46245161E-01 -3.31395106E-01  2.42899805E-01 -2.62098818E-15  2.67306650E-15
  2.27617654E-16 -3.33431183E-16 -3.70645745E-01  4.68508383E-01 -4.42326541E-02
  1.41333959E-02  1.71678131E-01 -2.82986287E-01 -1.43927904E-02 -2.49014805E-02
 -4.32693258E-01  3.50553904E-01 -1.85917595E-01  1.59277151E-02 -5.05404349E-01
  4.56733947E-01 -2.43234199E-01  9.18215207E-02  2.47869224E-01  1.80563788E-02
  7.53354718E-01 -6.71041800E-01  5.45079817E-01 -3.88401969E-01  5.07068792E-01
 -3.36168590E-01  2.01004155E-15 -2.06655357E-15  2.12215078E-15 -2.17023049E-15
  7.52882994E-01 -7.24999256E-01  2.17538705E-01  1.55999137E-02  5.52913935E-01
 -4.47329569E-01  2.69657063E-01 -5.31073676E-02 -2.45281466E-01  9.39342118E-02
 -1.70905207E-01 -7.19750537E-03 -6.88045953E-01  7.06703524E-01 -2.80175396E-01
  1.37511963E-01 -8.16354842E-02 -1.92689629E-02  5.17778851E-02 -2.11208934E-01
 -3.45956345E-01  3.54341269E-01 -3.71039190E-01  3.84142334E-01  5.48542319E-15
 -5.62991597E-15 -3.52547009E-15  3.62895024E-15 -3.91604872E-15  3.15066400E-15
  6.00042135E-17 -1.98634941E-15 -5.94088856E-15  5.83621344E-15 -2.68600644E-15
  1.23937338E-15 -1.61821150E-15  2.55569344E-15 -6.42336136E-16  1.50407773E-15
  6.14187780E-15 -7.45423106E-15  1.32299392E-16  3.56765954E-16 -3.41248586E-16
  1.87528913E-16 -1.18042404E-15  1.37594675E-15 -7.28839168E-16  3.80929421E-16
  1.33827577E-17 -5.55944418E-16  1.14981805E+00 -1.18695880E+00  5.73465615E-13
 -5.91927541E-13 -4.07815811E-15  4.31009521E-15 -9.83111378E-16  1.09882653E-16
 -9.35369337E-16  1.78719708E-16 -8.51329407E-16 -5.60161131E-17 -2.02071213E-16
  6.19763221E-16  1.90279476E-16  1.78531026E-17  1.83323265E-15 -2.12747025E-15
 -1.92648079E-16  4.63447065E-16  1.25068411E-16  6.65865742E-16  1.50445109E-15
 -9.76515263E-16  3.21968958E-15 -3.17997732E-15  8.22584098E-16 -4.43879766E-16
  5.73424083E-13 -5.91968125E-13 -1.14981805E+00  1.18695880E+00
Beta MO coefficients                       R   N=         784
 -3.55994775E-22  3.30994120E-22 -2.39337505E-21  3.00773072E-21 -9.21871120E-22
  9.59252520E-22  1.90365256E-21 -2.84820678E-21 -1.73077365E-22  6.17774372E-22
 -6.64175959E-22  8.08962298E-22 -2.13960277E-22 -2.11752233E-22 -5.26196325E-22
  2.05506160E-22 -3.20117332E-22  3.24363577E-22  7.41156221E-23 -3.30413338E-22
 -8.52577916E-22  6.85120931E-22 -1.51706933E-22  6.28891675E-22 -5.92081261E-01
 -5.13586011E-01 -6.10313087E-22  6.30072668E-22 -3.33342784E-18  7.44630762E-17
 -7.29532473E-19  1.28001572E-16  8.28554903E-17 -6.97487679E-17  9.11756533E-17
  7.63585820E-17  1.02869431E-16 -6.87898805E-17  9.64396051E-17  6.93653508E-17
 -5.91113751E-17  1.26762395E-16 -3.61785565E-18 -4.94025889E-17 -5.79623399E-17
  6.38244869E-17 -5.21551008E-18  3.08431980E-17 -5.29712028E-17  2.97823817E-17
  6.32307170E-17 -6.28201790E-17 -5.18895029E-17  5.35656070E-17 -5.92081261E-01
 -5.13586011E-01  7.40354887E-03  4.18829458E-03 -7.61293489E-04 -5.21496464E-04
 -9.65346456E-04 -3.89576044E-04 -7.48276866E-04 -4.98961833E-04  1.68647502E-03
  7.39831912E-04 -8.45395187E-04 -1.81378200E-04  3.46754541E-03  1.59357802E-03
 -4.59287972E-04 -3.97273280E-04  4.43822497E-01  7.24075676E-01 -1.66720909E-02
 -9.01494348E-02 -1.67742972E-02 -8.97357174E-02 -1.66581114E-02 -8.98467336E-02
 -6.77458950E-18 -5.87644701E-18 -6.27134198E-17 -8.82083558E-17  2.20686187E-03
  6.21888271E-04 -7.80190357E-04 -2.27969386E-04  2.31504760E-03  1.83960795E-03
 -3.38975787E-04 -3.78629924E-04 -1.63072432E-02 -8.97208087E-02  4.43618402E-01
  7.24283241E-01 -1.68192140E-02 -9.01494883E-02 -1.60184030E-02 -9.00725579E-02
 -8.71391755E-04 -1.23737333E-04  4.85499713E-03  2.66863878E-03 -9.04249039E-05
 -3.79171130E-04 -3.68881906E-04 -3.88240356E-04  2.73414588E-17  2.37166603E-17
 -7.05221963E-17 -9.23632080E-17  1.67353631E-02  9.02674565E-02 -4.43632715E-01
 -7.24286301E-01  1.64715050E-02  8.99857887E-02  1.59865847E-02  8.97852601E-02
  9.36022845E-04  6.84993471E-05  7.06399565E-04  2.26628730E-04 -5.20822207E-03
 -2.49886529E-03 -6.52691373E-04  4.77581373E-04  9.09717784E-04  6.21026084E-04
 -1.07622646E-03  7.80693816E-05 -2.50948790E-03 -1.88196287E-03 -5.21265804E-04
 -2.04642807E-03 -2.43433628E-17 -2.11160361E-17 -9.15306860E-18  2.78169430E-17
  2.68237232E-03  3.95728371E-03 -6.15112802E-04 -4.09455392E-04 -9.06776183E-06
 -1.28058675E-03 -6.10897853E-04 -4.14179545E-04  8.55095227E-03  7.50418042E-03
 -2.92076584E-03 -4.00304149E-03  1.01304399E-02  1.79775507E-02 -1.37945494E-03
 -4.30611938E-03  1.62020808E-02  9.00948764E-02 -4.44600227E-01 -7.24861889E-01
  1.57719351E-02  9.01011030E-02  1.59490540E-02  8.99364825E-02  4.72021841E-17
  4.09443470E-17  7.49752641E-17  1.03766153E-16 -8.08500566E-03 -1.70880733E-02
 -4.41069329E-04  3.03707891E-03  7.44748504E-04  2.51190198E-03  1.67568518E-03
  2.11170943E-03  1.56346355E-03  7.94976619E-04 -4.81848326E-04 -4.20737638E-04
  1.57357307E-03  2.03716984E-03 -4.80225638E-04 -3.64712713E-04 -1.62455547E-02
 -8.97407259E-02 -1.60257318E-02 -9.01702017E-02 -1.53202002E-02 -8.98855831E-02
  4.43861202E-01  7.24858575E-01  4.97574395E-18  4.31608353E-18 -3.21289665E-17
 -6.40902951E-17 -1.58639445E-02 -9.01113540E-02 -1.61880833E-02 -8.99096224E-02
  4.44136933E-01  7.24726796E-01 -1.60205634E-02 -9.00864529E-02  2.26211680E-03
  2.43875377E-03  8.62097896E-04  3.05137835E-03 -9.03018745E-03 -1.75660826E-02
 -4.26312078E-03  1.00720528E-03 -1.04659827E-03 -5.85138761E-04  5.07091622E-04
  6.05308610E-04  2.42628923E-03  1.80845918E-03  1.76648769E-03  1.61847985E-03
  5.21448653E-17  4.52317530E-17  4.35234583E-18 -3.48956987E-17 -1.65341220E-02
 -9.02329270E-02 -1.59760617E-02 -8.97694551E-02 -1.62737825E-02 -9.00718481E-02
  4.43486791E-01  7.24374686E-01 -4.70456703E-04 -2.56261117E-04 -4.37219957E-04
 -2.52932082E-04  2.08212304E-03  2.81979209E-03  1.14646584E-03 -6.65903145E-04
 -9.00125502E-04 -5.85513150E-04  1.07667847E-03 -1.48094603E-04  3.60811087E-04
  2.54513117E-03  2.64064557E-03  1.33201449E-03 -3.65373041E-17 -3.16933663E-17
 -5.38272969E-17 -8.28636850E-17 -1.04642927E-03 -1.46342407E-03 -1.11765633E-04
  1.91560037E-04  3.28828688E-03  2.13249113E-05 -7.73368485E-04  5.33715626E-04
  1.63520106E-02  8.98740096E-02  1.59774059E-02  9.00724086E-02  1.63041362E-02
  9.01161413E-02 -4.43530569E-01 -7.24356078E-01  5.96901766E-04  2.50747939E-04
 -3.22426754E-03 -2.92508225E-03 -2.13757514E-04  5.90264840E-04  4.64137512E-04
  3.01064740E-04  2.38634834E-17  2.06997782E-17 -6.62687001E-17 -2.57562777E-17
  8.75131357E-03  2.02100616E-02 -1.48416229E-03 -2.75784577E-03 -1.35577838E-03
 -2.66101836E-03  6.46242207E-04 -3.55335578E-03 -1.88896912E-03 -7.75644798E-04
  3.11829043E-04  3.46313342E-04  5.88587794E-04 -1.86798300E-03 -8.88854029E-05
  5.92501530E-04  1.63198191E-02  8.95519375E-02  1.58040734E-02  9.03064182E-02
 -4.43982090E-01 -7.25001231E-01  1.52917823E-02  8.99251101E-02  5.63405773E-17
  4.88712190E-17 -1.94295791E-17  1.99505755E-17 -1.50168689E-03 -9.64957606E-04
  9.56036456E-04  1.13310256E-04 -3.76906748E-03 -1.38937971E-03  3.13505167E-04
  4.15654671E-04 -4.43890484E-01 -7.24250220E-01  1.61670618E-02  8.96974705E-02
  1.58169529E-02  9.01629498E-02  1.62353270E-02  8.98431285E-02 -8.11512964E-04
 -1.38679686E-03  7.52720451E-03  9.13300851E-03 -1.25853511E-03 -1.17141632E-03
 -8.26673515E-04 -1.28964956E-03 -2.49438443E-17 -2.16369131E-17  6.52523945E-17
  8.88985384E-17  8.26453075E-03  8.77351951E-03 -3.21570916E-03 -3.91808170E-03
  9.43163096E-03  1.66745406E-02 -2.49465999E-04 -4.39969089E-03  1.54511432E-02
  9.02002376E-02  1.62516272E-02  8.99746259E-02 -4.45222398E-01 -7.25192969E-01
  1.58306060E-02  9.00714053E-02 -2.15295995E-03 -2.48319970E-03  9.45358669E-03
  1.91734733E-02  1.65473637E-03 -2.79075722E-03 -3.84706691E-04 -2.98356852E-03
 -7.54809230E-17 -6.54740275E-17 -4.10883400E-17  1.80075287E-18 -4.45280273E-01
 -7.25121959E-01  1.61682818E-02  9.00718216E-02  1.55554173E-02  8.98075023E-02
  1.59813702E-02  9.01039992E-02 -5.94791413E-04 -1.67401936E-03 -1.33901602E-03
 -1.20706031E-03  7.17991798E-03  1.04208761E-02 -6.52704008E-04 -1.73083558E-03
 -4.83693329E-03 -6.07018760E-03  4.58574187E-03  1.35604359E-03  9.82609463E-03
  1.71921685E-02  9.26754154E-03  1.42043991E-02 -1.44880735E-18 -1.25673342E-18
 -2.09194326E-17  2.48109120E-17  6.14868044E-01 -6.22025833E-01 -2.88954559E-01
  3.62538580E-01  1.74903695E-01 -1.36369924E-01 -1.74684354E-01  2.34047273E-01
  5.42206132E-02 -1.49302120E-02 -2.67850064E-01  3.37783586E-01  6.55965643E-01
 -6.64865940E-01 -1.32445955E-01  1.85642803E-01 -4.14353200E-01  5.13365055E-01
  4.86043720E-01 -4.64627567E-01  2.24614032E-01 -1.77642764E-01  1.32602878E-01
 -7.82250845E-02 -3.45736216E-16  3.57027912E-16  2.31348398E-16 -2.09524400E-16
 -4.81417268E-01  5.19686795E-01  4.79511564E-02 -6.41556997E-02  2.48791757E-01
 -2.90514376E-01  1.01167371E-01 -1.25466216E-01  4.92586185E-01 -5.24784512E-01
 -3.11687148E-01  3.88937387E-01  1.92856126E-01 -1.68931821E-01 -1.28334505E-01
  1.78605134E-01  2.20953749E-01 -2.69038028E-01  5.97450652E-01 -6.94257326E-01
 -4.66499347E-01  5.01641085E-01 -4.84652645E-01  5.25375991E-01 -2.38694564E-16
  2.54040479E-16  4.05958488E-16 -4.74870022E-16  2.12309135E-01 -2.64494114E-01
  2.70270285E-01 -3.33389104E-01 -7.74399594E-01  8.62196725E-01  1.37756111E-01
 -1.80013468E-01  6.05900043E-01 -7.10178739E-01  6.72068163E-02 -9.17485967E-02
 -3.49552771E-01  3.77159618E-01 -4.31332991E-01  4.82990637E-01 -2.71935794E-01
  3.34923494E-01  2.55132701E-01 -2.71816419E-01  6.05655267E-02 -3.93315028E-02
  1.19588666E-01 -1.08803738E-01  1.26011764E-16 -3.91310814E-17 -2.76256187E-16
  3.09801894E-16  4.15846075E-02 -5.17990986E-02  5.11707307E-01 -6.03332966E-01
  1.14499225E-01 -1.38560454E-01 -6.72421659E-01  7.93521575E-01  1.05992998E-01
 -1.17974929E-01 -2.53038121E-01  3.04361600E-01 -1.11474764E-01  1.44576781E-01
  3.07287396E-01 -3.56284821E-01 -9.92357613E-02  1.19796414E-01  5.06588977E-02
 -5.93379356E-02 -5.51090147E-01  6.54686608E-01  6.19401878E-01 -7.26198842E-01
 -7.11774649E-16  6.96627869E-16 -7.55812554E-16  9.94005570E-16 -4.94536479E-02
  5.85420947E-02  1.38021841E-01 -1.62898899E-01  1.31394854E-01 -1.45744768E-01
 -2.04057836E-01  2.43976916E-01 -2.47772490E-01  3.01858444E-01  7.67215960E-01
 -9.06203886E-01  3.17339066E-01 -3.65471290E-01 -7.87987915E-01  9.43696571E-01
  1.34459531E-01 -1.60422855E-01  5.80130186E-02 -6.29968749E-02 -3.48172338E-01
  4.11139058E-01  1.53816390E-01 -1.85582936E-01 -1.02283937E-15  1.08742128E-15
  8.65856742E-17 -9.76819713E-17  7.74901199E-03 -5.26539898E-03  6.28865665E-01
 -7.49476134E-01  3.14148221E-02 -3.53729114E-02 -6.57703524E-01  7.85716053E-01
 -2.78458295E-02  3.40133897E-02  4.09712940E-02 -4.83588295E-02  3.27300018E-02
 -3.64716971E-02 -3.98618819E-02  4.82744568E-02  3.61028577E-02 -4.27051120E-02
  1.18505588E-02 -1.29289219E-02  6.05458456E-01 -7.21697070E-01 -6.49174233E-01
  7.75275588E-01 -7.02274097E-16  7.59625573E-16  8.90490256E-16 -5.63572743E-16
 -4.19143901E-01  5.40613261E-01  1.39566303E-01 -1.48404487E-01  2.47687184E-01
 -2.86663131E-01  1.77759404E-01 -1.94948837E-01 -1.04759645E-01  1.98747049E-01
  4.07581292E-01 -4.33695641E-01 -1.17372574E-01  2.19346711E-01  2.54355284E-01
 -2.45703014E-01 -1.04030805E+00  1.13291474E+00  1.99720849E-01 -3.98738847E-01
 -1.58640466E-02 -1.38499324E-01 -9.88527794E-02 -3.44295736E-02  4.84608581E-16
 -4.62125188E-16  6.90073274E-16 -4.54997875E-16  9.19253309E-02 -3.02069074E-02
  5.61239138E-01 -6.03227543E-01 -5.29916337E-01  7.48499172E-01  4.38653129E-01
 -4.53261112E-01 -7.00164830E-01  8.27134009E-01 -1.56275419E-01  1.56278577E-01
  3.88257023E-01 -5.21044022E-01  2.30662379E-01 -3.19132884E-01  8.28142308E-02
 -9.23734533E-02  3.02922530E-01 -3.58318605E-01 -2.24665954E-01  2.84640968E-01
 -9.87678605E-02  1.30375578E-01 -2.71995467E-15  2.83029483E-15 -2.56066154E-16
  8.73897483E-17  3.12111398E-01 -5.10341098E-01 -4.14594533E-01  4.13629108E-01
 -2.47880114E-01  1.93603578E-01 -3.29757217E-01  3.08569050E-01 -2.10973367E-02
  1.75459931E-01  6.22751248E-01 -6.31396062E-01 -2.55872345E-01  4.79664725E-01
  5.86149792E-01 -5.86791430E-01  2.54648979E-01 -2.60352176E-01  5.57895746E-01
 -6.48202318E-01 -1.96331081E-01  3.15848285E-01 -2.43213545E-01  3.71465345E-01