                  Welcome to Q-Chem
     A Quantum Leap Into The Future Of Chemistry


 Q-Chem 4.3, Q-Chem, Inc., Pleasanton, CA (2015)

 Y. Shao,  Z. Gan,  E. Epifanovsky,  A. T. B. Gilbert,  M. Wormit,  
 J. Kussmann,  A. W. Lange,  A. Behn,  J. Deng,  X. Feng,  D. Ghosh,  
 M. Goldey,  P. R. Horn,  L. D. Jacobson,  I. Kaliman,  R. Z. Khaliullin,  
 T. Kus,  A. Landau,  J. Liu,  E. I. Proynov,  Y. M. Rhee,  R. M. Richard,  
 M. A. Rohrdanz,  R. P. Steele,  E. J. Sundstrom,  H. L. Woodcock III,  
 P. M. Zimmerman,  D. Zuev,  B. Albrecht,  E. Alguire,  B. Austin,  
 S. A. Baeppler,  G. J. O. Beran,  Y. A. Bernard,  E. Berquist,  
 K. Brandhorst,  K. B. Bravaya,  S. T. Brown,  D. Casanova,  C.-M. Chang,  
 Y. Chen,  S. H. Chien,  K. D. Closser,  D. L. Crittenden,  M. Diedenhofen,  
 R. A. DiStasio Jr.,  H. Do,  A. D. Dutoi,  R. G. Edgar,  P.-T. Fang,  
 S. Fatehi,  Q. Feng,  L. Fusti-Molnar,  A. Ghysels,  
 A. Golubeva-Zadorozhnaya,  J. Gomes,  A. Gunina,  M. W. D. Hanson-Heine,  
 P. H. P. Harbach,  A. W. Hauser,  E. G. Hohenstein,  Z. C. Holden,  K. Hui,  
 T.-C. Jagau,  H. Ji,  B. Kaduk,  K. Khistyaev,  Jaehoon Kim,  Jihan Kim,  
 R. A. King,  P. Klunzinger,  D. Kosenkov,  T. Kowalczyk,  C. M. Krauter,  
 K. U. Lao,  A. Laurent,  K. V. Lawler,  S. Lehtola,  S. V. Levchenko,  
 C. Y. Lin,  Y.-S. Lin,  F. Liu,  E. Livshits,  R. C. Lochan,  A. Luenser,  
 P. Manohar,  S. F. Manzer,  S.-P. Mao,  N. Mardirossian,  A. V. Marenich,  
 L. A. Martinez-Martinez,  S. A. Maurer,  N. J. Mayhall,  K. Nanda,  
 C. M. Oana,  R. Olivares-Amaya,  D. P. O'Neill,  J. A. Parkhill,  
 T. M. Perrine,  R. Peverati,  P. A. Pieniazek,  F. Plasser,  A. Prociuk,  
 D. R. Rehn,  E. Rosta,  N. J. Russ,  N. Sergueev,  S. M. Sharada,  
 S. Sharma,  D. W. Small,  A. Sodt,  T. Stauch,  T. Stein,  D. Stuck,  
 Y.-C. Su,  A. J. W. Thom,  T. Tsuchimochi,  L. Vogt,  O. Vydrov,  T. Wang,  
 M. A. Watson,  J. Wenzel,  A. White,  C. F. Williams,  V. Vanovschi,  
 S. Yeganeh,  S. R. Yost,  Z.-Q. You,  I. Y. Zhang,  X. Zhang,  Y. Zhao,  
 B. R. Brooks,  G. K. L. Chan,  D. M. Chipman,  C. J. Cramer,  
 W. A. Goddard III,  M. S. Gordon,  W. J. Hehre,  A. Klamt,  
 H. F. Schaefer III,  M. W. Schmidt,  C. D. Sherrill,  D. G. Truhlar,  
 A. Warshel,  X. Xu,  A. Aspuru-Guzik,  R. Baer,  A. T. Bell,  N. A. Besley,  
 J.-D. Chai,  A. Dreuw,  B. D. Dunietz,  T. R. Furlani,  S. R. Gwaltney,  
 C.-P. Hsu,  Y. Jung,  J. Kong,  D. S. Lambrecht,  W. Liang,  C. Ochsenfeld,  
 V. A. Rassolov,  L. V. Slipchenko,  J. E. Subotnik,  T. Van Voorhis,  
 J. M. Herbert,  A. I. Krylov,  P. M. W. Gill,  M. Head-Gordon

 Contributors to earlier versions of Q-Chem not listed above: 
 R. D. Adamson,  J. Baker,  E. F. C. Byrd,  A. K. Chakraborty,  C.-L. Cheng,  
 H. Dachsel,  R. J. Doerksen,  G. Hawkins,  A. Heyden,  S. Hirata,  
 G. Kedziora,  F. J. Keil,  C. Kelley,  P. P. Korambath,  W. Kurlancheek,  
 A. M. Lee,  M. S. Lee,  D. Liotard,  I. Lotan,  P. E. Maslen,  N. Nair,  
 D. Neuhauser,  R. Olson,  B. Peters,  J. Ritchie,  N. E. Schultz,  
 N. Shenvi,  A. C. Simmonett,  K. S. Thanthiriwatte,  Q. Wu,  W. Zhang

 Please cite Q-Chem as follows:
 Y. Shao et al., Mol. Phys. 113, 184-215 (2015)
 DOI: 10.1080/00268976.2014.952696

 Q-Chem 4.3.0 for Intel X86 EM64T Linux

 Parts of Q-Chem use Armadillo 5.200.1 (Boston Tea Smuggler).
 http://arma.sourceforge.net/

 Q-Chem begins on Mon Mar 20 16:11:01 2017  


Host: 0

     Scratch files written to /home/nmayhall/scratch_qchem/04//
 Dec1416 |home|nmayhall|qcSoftware|qchem|qchem.svn-casman|libmdc|qstr_RNUM -1
 Using version located at /home/nmayhall/qcSoftware/qchem/qchem.svn-casman/bin/qchem


Total Memory Limit in MB = 2000
Mega-Array Size in MB = 62

Checking the input file for inconsistencies... 	...done.

 Q-Chem warning in module /home/nmayhall/qcSoftware/qchem/qchem.svn-casman/forms1/BasisType.C, line 1452:

 You are not using the predefined 5D/6D in this basis set.

Finally everything over in PARseQInput

--------------------------------------------------------------
User input:
--------------------------------------------------------------
$rem
	exchange 		hf
	unrestricted		1
	basis			6-31g*	
	aux_basis		rimp2-vdz
	scf_guess		core	
	scf_convergence		8
	purecart		1111

	symmetry		0
	sym_ignore		1

	!correlation		sf-cas
	!cas_n_spin_flip		1
	!cas_local		1
	gui			2
$end

$development
	1sf_heis_projection	1
$end

$molecule
0 13
H         -0.73854       -0.54065        0.08576
H         -2.31340       -1.01748       -0.67017
H         -2.09582        0.65549       -0.01146
H         -2.21044       -0.75437        1.11995
H	1.47674	3.47203	0.09828
H	0.1685	4.06022	1.20546
H	0.18287	2.3348	0.65668
H	-0.21686	3.65528	-0.51743
H          3.48850       -0.87553       -0.06084
H          2.29649        0.48578       -0.00191
H          1.93960       -1.06676        0.85992
H          1.91588       -1.00965       -0.95022
He	10	10	10	
He	-10	10	10	
$end


--------------------------------------------------------------
 ----------------------------------------------------------------
             Standard Nuclear Orientation (Angstroms)
    I     Atom           X                Y                Z
 ----------------------------------------------------------------
    1      H      -0.7385400000    -0.5406500000     0.0857600000
    2      H      -2.3134000000    -1.0174800000    -0.6701700000
    3      H      -2.0958200000     0.6554900000    -0.0114600000
    4      H      -2.2104400000    -0.7543700000     1.1199500000
    5      H       1.4767400000     3.4720300000     0.0982800000
    6      H       0.1685000000     4.0602200000     1.2054600000
    7      H       0.1828700000     2.3348000000     0.6566800000
    8      H      -0.2168600000     3.6552800000    -0.5174300000
    9      H       3.4885000000    -0.8755300000    -0.0608400000
   10      H       2.2964900000     0.4857800000    -0.0019100000
   11      H       1.9396000000    -1.0667600000     0.8599200000
   12      H       1.9158800000    -1.0096500000    -0.9502200000
   13      He     10.0000000000    10.0000000000    10.0000000000
   14      He    -10.0000000000    10.0000000000    10.0000000000
 ----------------------------------------------------------------
 Nuclear Repulsion Energy =    12.6852507439 hartrees
 There are       14 alpha and        2 beta electrons
 Requested basis set is 6-31G(d)
 There are 28 shells and 28 basis functions

Total QAlloc Memory Limit   2000 MB
Mega-Array Size        61 MB
MEM_STATIC part        62 MB

finished with qalloc call

                       Distance Matrix (Angstroms)
             H (  1)   H (  2)   H (  3)   H (  4)   H (  5)   H (  6)
   H (  2)  1.810796
   H (  3)  1.811743  1.811096
   H (  4)  1.811550  1.812280  1.811334
   H (  5)  4.583582  5.925485  4.550618  5.701014
   H (  6)  4.821250  5.954902  4.266172  5.370935  1.811990
   H (  7)  3.072972  4.385165  2.908422  3.935165  1.810857  1.810646
   H (  8)  4.271044  5.123816  3.575645  5.108854  1.811342  1.811306
   H (  9)  4.242818  5.835536  5.790604  5.821242  4.793097  6.081739
   H ( 10)  3.205098  4.894635  4.395598  4.807178  3.098341  4.331594
   H ( 11)  2.836997  4.520134  4.473261  4.169896  4.625467  5.435266
   H ( 12)  2.887761  4.238549  4.443838  4.623558  4.623597  5.779609
   He( 13) 18.019814 19.668686 18.271783 18.536629 14.604945 14.466628
   He( 14) 17.180573 17.155792 15.812187 15.974636 16.503758 14.697732
             H (  7)   H (  8)   H (  9)   H ( 10)   H ( 11)   H ( 12)
   H (  8)  1.811625
   H (  9)  4.663501  5.870810
   H ( 10)  2.884442  4.077796  1.810394
   H ( 11)  3.833799  5.370761  1.812032  1.811216
   H ( 12)  4.095216  5.147568  1.811662  1.811206  1.811196
   He( 13) 15.570130 15.976734 16.183241 15.808310 16.461600 17.506362
   He( 14) 15.803283 15.702918 20.035900 18.486813 18.669984 19.573143
             He( 13)
   He( 14) 20.000000


 Q-Chem warning in module /home/nmayhall/qcSoftware/qchem/qchem.svn-casman/forms1/BasisType.C, line 1375:

 SAD: How to set up polarization functions for non-Pople basis?

 Requested basis set is rimp2-VDZ
 There are 82 shells and 186 basis functions
 Job number = 2, Threshold = 1.00E-11
Integral type ranges set in mkLRange.C for JobNum: 2  <1-7|1-7>
Symmetry turned off temporarily
 Using the largest function pair in Schwarz integrals
Total number of integrals generated =            1007
Symmetry turned back on
 A cutoff of  1.0D-11 yielded    281 shell pairs
 There are       281 function pairs
 Job number = 11, Threshold = 1.00E-11
Integral type ranges set in mkLRange.C for JobNum: 11  <1-1|8-8>

 -------------------------------------------------------
 OpenMP Integral Computing Module                       
 Release: version 1.0, May 2013, Q-Chem Inc. Pittsburgh 
 -------------------------------------------------------
 Integral Job Info:
 Integral job number is                      11
 Integral operator is                         1
 short-range coefficients                     0
 long-range coefficients              100000000
 Omega coefficients                           0
 if combine SR and LR in K                    0
 Integral screening is                        0
 Integral computing path is                   2
 max size of driver memory is            800000
 size of driver memory is                 11780
 size of scratch memory is               800000
 max col of scratch BK array                289
 max len of scratch array in speh3            1
 max len of scratch index in speh4            2
 max int batch size is                      520
 min int batch size is                       52
 fixed nKL is                               520
 max L of basis functions is                  0
 order of int derivative is                   0
 number of shells is                         28
 number of basis is                          28
 number of cartesian basis is                28
 number of contracted shell pairs           281
 number of primitive shell pairs            803
 maxK2 (contraction) of shell pair            9
 max number of K2 of shell pair               1
 max number of CS2 of shell pair            146
 max number of PS2 of shell pair            438
 mem total for path MDJ                    6768
 -------------------------------------------------------
 Smallest overlap matrix eigenvalue = 2.02E-01
 Multipole matrices computed through 2nd order

  Scale SEOQF with 1.000000e-02/1.000000e-02/1.000000e-02

 Standard Electronic Orientation quadrupole field applied
 Nucleus-field energy     =     0.0000000005 hartrees
GuessMan:  IGuess = 1
 Guess MOs from core Hamiltonian diagonalization
scfman initvdwdat 
 An unrestricted Hartree-Fock SCF calculation will be
 performed using Pulay DIIS extrapolation
 SCF converges when DIIS error is below 1.0E-08
Finding J and K together
 Job number = 22, Threshold = 1.00E-11
Integral type ranges set in mkLRange.C for JobNum: 22  <1-1|1-1>
Storing 4588.93% of integrals
Total number of integrals generated =           36212
 MakeJK  time:  CPU       0.01 s  wall       0.01 s
Fock build time:  0.01 s (CPU) 0.01 s (wall)
DIIS Errors:  Max 3.48E-01 RMS 2.98E-02

Current DIIS subspace size = 1
REM_GRID_RESTART_DIIS = 0

 ---------------------------------------
  Cycle       Energy         DIIS Error
 ---------------------------------------
    1      -9.4815792668      2.98E-02  00000
Finding J and K together
 Job number = 22, Threshold = 1.00E-11
Integral type ranges set in mkLRange.C for JobNum: 22  <1-1|1-1>
Storing 4588.93% of integrals
Reusing in-core integrals buffer for job 22
 MakeJK  time:  CPU       0.00 s  wall       0.00 s
Fock build time:  0.00 s (CPU) 0.00 s (wall)
DIIS Errors:  Max 2.54E-01 RMS 1.93E-02

Current DIIS subspace size = 2
REM_GRID_RESTART_DIIS = 0

    2     -11.3687316031      1.93E-02  00000
Finding J and K together
 Job number = 22, Threshold = 1.00E-11
Integral type ranges set in mkLRange.C for JobNum: 22  <1-1|1-1>
Storing 4588.93% of integrals
Reusing in-core integrals buffer for job 22
 MakeJK  time:  CPU       0.00 s  wall       0.00 s
Fock build time:  0.00 s (CPU) 0.00 s (wall)
DIIS Errors:  Max 1.07E-01 RMS 8.42E-03

Current DIIS subspace size = 3
REM_GRID_RESTART_DIIS = 0

    3     -11.4371034980      8.42E-03  00000
Finding J and K together
 Job number = 22, Threshold = 1.00E-11
Integral type ranges set in mkLRange.C for JobNum: 22  <1-1|1-1>
Storing 4588.93% of integrals
Reusing in-core integrals buffer for job 22
 MakeJK  time:  CPU       0.00 s  wall       0.00 s
Fock build time:  0.00 s (CPU) 0.00 s (wall)
DIIS Errors:  Max 9.58E-03 RMS 9.29E-04

Current DIIS subspace size = 4
REM_GRID_RESTART_DIIS = 0

    4     -11.4675943059      9.29E-04  00000
Finding J and K together
 Job number = 22, Threshold = 1.00E-11
Integral type ranges set in mkLRange.C for JobNum: 22  <1-1|1-1>
Storing 4588.93% of integrals
Reusing in-core integrals buffer for job 22
 MakeJK  time:  CPU       0.00 s  wall       0.00 s
Fock build time:  0.00 s (CPU) 0.00 s (wall)
DIIS Errors:  Max 1.43E-04 RMS 1.11E-05

Current DIIS subspace size = 5
REM_GRID_RESTART_DIIS = 0

    5     -11.4702519371      1.11E-05  00000
Finding J and K together
 Job number = 22, Threshold = 1.00E-11
Integral type ranges set in mkLRange.C for JobNum: 22  <1-1|1-1>
Storing 4588.93% of integrals
Reusing in-core integrals buffer for job 22
 MakeJK  time:  CPU       0.00 s  wall       0.00 s
Fock build time:  0.00 s (CPU) 0.00 s (wall)
DIIS Errors:  Max 1.13E-05 RMS 8.54E-07

Current DIIS subspace size = 6
REM_GRID_RESTART_DIIS = 0

    6     -11.4703587134      8.54E-07  00000
Finding J and K together
 Job number = 22, Threshold = 1.00E-11
Integral type ranges set in mkLRange.C for JobNum: 22  <1-1|1-1>
Storing 4588.93% of integrals
Reusing in-core integrals buffer for job 22
 MakeJK  time:  CPU       0.00 s  wall       0.00 s
Fock build time:  0.00 s (CPU) 0.00 s (wall)
DIIS Errors:  Max 7.36E-07 RMS 6.13E-08

Current DIIS subspace size = 7
REM_GRID_RESTART_DIIS = 0

    7     -11.4703752131      6.13E-08  00000
Finding J and K together
 Job number = 22, Threshold = 1.00E-11
Integral type ranges set in mkLRange.C for JobNum: 22  <1-1|1-1>
Storing 4588.93% of integrals
Reusing in-core integrals buffer for job 22
 MakeJK  time:  CPU       0.00 s  wall       0.00 s
Fock build time:  0.00 s (CPU) 0.00 s (wall)
DIIS Errors:  Max 1.44E-07 RMS 1.11E-08

Current DIIS subspace size = 8
REM_GRID_RESTART_DIIS = 0

    8     -11.4703782931      1.11E-08  00000
Finding J and K together
 Job number = 22, Threshold = 1.00E-11
Integral type ranges set in mkLRange.C for JobNum: 22  <1-1|1-1>
Storing 4588.93% of integrals
Reusing in-core integrals buffer for job 22
 MakeJK  time:  CPU       0.00 s  wall       0.00 s
Fock build time:  0.00 s (CPU) 0.00 s (wall)
DIIS Errors:  Max 8.19E-09 RMS 6.09E-10

Current DIIS subspace size = 9
REM_GRID_RESTART_DIIS = 0

    9     -11.4703786269      6.09E-10  00000 Convergence criterion met
 ---------------------------------------
 <S^2> = 42.0000
 SCF time:  CPU 0.04 s  wall 0.04 s
 SCF   energy in the final basis set = -11.4703786269
 Total energy in the final basis set = -11.4703786269
Symmetry turned off temporarily
 Analysis of SCF Wavefunction

 --------------------------------------------------------------

                    Orbital Energies (a.u.)
 --------------------------------------------------------------

 Alpha MOs
 -- Occupied --
 -0.914  -0.914  -0.711  -0.700  -0.698  -0.472  -0.468  -0.462
 -0.455  -0.453  -0.452  -0.445  -0.440  -0.435
 -- Virtual --
  0.813   0.860   0.868   0.904   0.920   0.928   0.974   0.978
  1.001   1.056   1.151   1.161   1.400   1.400

 Beta MOs
 -- Occupied --
 -0.914  -0.914
 -- Virtual --
 -0.053  -0.035  -0.033   0.133   0.143   0.148   0.160   0.164
  0.167   0.182   0.190   0.200   1.039   1.076   1.081   1.110
  1.124   1.130   1.172   1.175   1.197   1.259   1.347   1.355
  1.400   1.400
 --------------------------------------------------------------

          Ground-State Mulliken Net Atomic Charges

     Atom                 Charge (a.u.)    Spin (a.u.)
  --------------------------------------------------------
      1 H                     0.000071       0.999929
      2 H                     0.000027       0.999973
      3 H                    -0.000017       1.000017
      4 H                     0.000002       0.999998
      5 H                    -0.000030       1.000030
      6 H                     0.000023       0.999977
      7 H                     0.000026       0.999974
      8 H                    -0.000029       1.000029
      9 H                     0.000070       0.999930
     10 H                     0.000011       0.999989
     11 H                    -0.000078       1.000078
     12 H                    -0.000077       1.000077
     13 He                    0.000000       0.000000
     14 He                    0.000000       0.000000
  --------------------------------------------------------
  Sum of atomic charges =    -0.000000
  Sum of spin   charges =    12.000000

 -----------------------------------------------------------------
                    Cartesian Multipole Moments
 -----------------------------------------------------------------
    Charge (ESU x 10^10)
                 0.0000
    Dipole Moment (Debye)
         X      -0.0002      Y      -0.0005      Z       0.0003
       Tot       0.0006
    Quadrupole Moments (Debye-Ang)
        XX     -19.6393     XY       0.0164     YY     -19.5732
        XZ      -0.0005     YZ      -0.0162     ZZ     -19.5115
    Octopole Moments (Debye-Ang^2)
       XXX     -19.5250    XXY     -33.9516    XYY      -4.8492
       YYY    -104.7880    XXZ     -22.9055    XYZ      -0.0136
       YYZ     -23.8395    XZZ      -4.1103    YZZ     -33.9092
       ZZZ     -70.7097
    Hexadecapole Moments (Debye-Ang^3)
      XXXX   -1642.7934   XXXY     -10.9122   XXYY    -562.8052
      XYYY      -9.4689   YYYY   -1720.3268   XXXZ       3.4276
      XXYZ    -214.1780   XYYZ       0.0787   YYYZ    -651.2899
      XXZZ    -491.0259   XYZZ      -3.0245   YYZZ    -512.5718
      XZZZ       4.4623   YZZZ    -646.3690   ZZZZ   -1318.2273
 -----------------------------------------------------------------
 JobOver = TRUE
Archival summary:
1\1\sinatra\SP\HF\6-31G*\e212()\nmayhall\MonMar2016:11:012017MonMar2016:11:012017\0\\#,HF,6-31G*,\\0,13\H\H,1,1.81065\H,1,1.81086,2,60.0452\H,2,1.81131,1,60.0237,3,-70.5123,0\H,1,2.88444,2,133.305,3,-32.1425,0\H,5,1.81039,1,166.391,2,-112.316,0\H,5,1.81121,1,119.659,2,162.899,0\H,7,1.8112,5,60.0005,1,93.7355,0\H,8,2.837,7,73.0863,5,-92.9521,0\H,9,1.8108,8,152.386,7,-68.5028,0\H,10,1.8111,9,60.0291,8,178.05,0\H,11,1.81133,10,60.0389,9,70.5227,0\He,2,14.4666,1,124.758,3,67.5959,0\He,2,14.6977,1,124.886,3,-179.104,0\\HF=-11.4703786\\@

 Total job time:  0.10s(wall), 0.10s(cpu) 
 Mon Mar 20 16:11:01 2017

        *************************************************************
        *                                                           *
        *  Thank you very much for using Q-Chem.  Have a nice day.  *
        *                                                           *
        *************************************************************


*** MISSION COMPLETED -- STARFLEET OUT ***

 
User input: 2 of 2 
 
                  Welcome to Q-Chem
     A Quantum Leap Into The Future Of Chemistry


 Q-Chem 4.3, Q-Chem, Inc., Pleasanton, CA (2015)

 Y. Shao,  Z. Gan,  E. Epifanovsky,  A. T. B. Gilbert,  M. Wormit,  
 J. Kussmann,  A. W. Lange,  A. Behn,  J. Deng,  X. Feng,  D. Ghosh,  
 M. Goldey,  P. R. Horn,  L. D. Jacobson,  I. Kaliman,  R. Z. Khaliullin,  
 T. Kus,  A. Landau,  J. Liu,  E. I. Proynov,  Y. M. Rhee,  R. M. Richard,  
 M. A. Rohrdanz,  R. P. Steele,  E. J. Sundstrom,  H. L. Woodcock III,  
 P. M. Zimmerman,  D. Zuev,  B. Albrecht,  E. Alguire,  B. Austin,  
 S. A. Baeppler,  G. J. O. Beran,  Y. A. Bernard,  E. Berquist,  
 K. Brandhorst,  K. B. Bravaya,  S. T. Brown,  D. Casanova,  C.-M. Chang,  
 Y. Chen,  S. H. Chien,  K. D. Closser,  D. L. Crittenden,  M. Diedenhofen,  
 R. A. DiStasio Jr.,  H. Do,  A. D. Dutoi,  R. G. Edgar,  P.-T. Fang,  
 S. Fatehi,  Q. Feng,  L. Fusti-Molnar,  A. Ghysels,  
 A. Golubeva-Zadorozhnaya,  J. Gomes,  A. Gunina,  M. W. D. Hanson-Heine,  
 P. H. P. Harbach,  A. W. Hauser,  E. G. Hohenstein,  Z. C. Holden,  K. Hui,  
 T.-C. Jagau,  H. Ji,  B. Kaduk,  K. Khistyaev,  Jaehoon Kim,  Jihan Kim,  
 R. A. King,  P. Klunzinger,  D. Kosenkov,  T. Kowalczyk,  C. M. Krauter,  
 K. U. Lao,  A. Laurent,  K. V. Lawler,  S. Lehtola,  S. V. Levchenko,  
 C. Y. Lin,  Y.-S. Lin,  F. Liu,  E. Livshits,  R. C. Lochan,  A. Luenser,  
 P. Manohar,  S. F. Manzer,  S.-P. Mao,  N. Mardirossian,  A. V. Marenich,  
 L. A. Martinez-Martinez,  S. A. Maurer,  N. J. Mayhall,  K. Nanda,  
 C. M. Oana,  R. Olivares-Amaya,  D. P. O'Neill,  J. A. Parkhill,  
 T. M. Perrine,  R. Peverati,  P. A. Pieniazek,  F. Plasser,  A. Prociuk,  
 D. R. Rehn,  E. Rosta,  N. J. Russ,  N. Sergueev,  S. M. Sharada,  
 S. Sharma,  D. W. Small,  A. Sodt,  T. Stauch,  T. Stein,  D. Stuck,  
 Y.-C. Su,  A. J. W. Thom,  T. Tsuchimochi,  L. Vogt,  O. Vydrov,  T. Wang,  
 M. A. Watson,  J. Wenzel,  A. White,  C. F. Williams,  V. Vanovschi,  
 S. Yeganeh,  S. R. Yost,  Z.-Q. You,  I. Y. Zhang,  X. Zhang,  Y. Zhao,  
 B. R. Brooks,  G. K. L. Chan,  D. M. Chipman,  C. J. Cramer,  
 W. A. Goddard III,  M. S. Gordon,  W. J. Hehre,  A. Klamt,  
 H. F. Schaefer III,  M. W. Schmidt,  C. D. Sherrill,  D. G. Truhlar,  
 A. Warshel,  X. Xu,  A. Aspuru-Guzik,  R. Baer,  A. T. Bell,  N. A. Besley,  
 J.-D. Chai,  A. Dreuw,  B. D. Dunietz,  T. R. Furlani,  S. R. Gwaltney,  
 C.-P. Hsu,  Y. Jung,  J. Kong,  D. S. Lambrecht,  W. Liang,  C. Ochsenfeld,  
 V. A. Rassolov,  L. V. Slipchenko,  J. E. Subotnik,  T. Van Voorhis,  
 J. M. Herbert,  A. I. Krylov,  P. M. W. Gill,  M. Head-Gordon

 Contributors to earlier versions of Q-Chem not listed above: 
 R. D. Adamson,  J. Baker,  E. F. C. Byrd,  A. K. Chakraborty,  C.-L. Cheng,  
 H. Dachsel,  R. J. Doerksen,  G. Hawkins,  A. Heyden,  S. Hirata,  
 G. Kedziora,  F. J. Keil,  C. Kelley,  P. P. Korambath,  W. Kurlancheek,  
 A. M. Lee,  M. S. Lee,  D. Liotard,  I. Lotan,  P. E. Maslen,  N. Nair,  
 D. Neuhauser,  R. Olson,  B. Peters,  J. Ritchie,  N. E. Schultz,  
 N. Shenvi,  A. C. Simmonett,  K. S. Thanthiriwatte,  Q. Wu,  W. Zhang

 Please cite Q-Chem as follows:
 Y. Shao et al., Mol. Phys. 113, 184-215 (2015)
 DOI: 10.1080/00268976.2014.952696

 Q-Chem 4.3.0 for Intel X86 EM64T Linux

 Parts of Q-Chem use Armadillo 5.200.1 (Boston Tea Smuggler).
 http://arma.sourceforge.net/

 Q-Chem begins on Mon Mar 20 16:11:01 2017  


Host: 0

     Scratch files written to /home/nmayhall/scratch_qchem/04//
 Dec1416 |home|nmayhall|qcSoftware|qchem|qchem.svn-casman|libmdc|qstr_RNUM -1
 Using version located at /home/nmayhall/qcSoftware/qchem/qchem.svn-casman/bin/qchem

 Turning off symmetry for CASMAN

Total Memory Limit in MB = 2000
Mega-Array Size in MB = 62

Checking the input file for inconsistencies... 	...done.

 Q-Chem warning in module /home/nmayhall/qcSoftware/qchem/qchem.svn-casman/forms1/BasisType.C, line 1452:

 You are not using the predefined 5D/6D in this basis set.

Finally everything over in PARseQInput

--------------------------------------------------------------
User input:
--------------------------------------------------------------
$rem
	exchange 		hf
	unrestricted		0
	basis			6-31g*	
	aux_basis		rimp2-vdz
	scf_guess		read	
	scf_convergence		8
	purecart		1111

	symmetry		0
	sym_ignore		1

	correlation		sf-cas
	cas_n_spin_flip		1
	cas_local		1
	gui			2
$end

$development
	1sf_heis_projection	1
	scf_corresponding_orbs	1
$end

$molecule
read
$end

--------------------------------------------------------------
 ----------------------------------------------------------------
             Standard Nuclear Orientation (Angstroms)
    I     Atom           X                Y                Z
 ----------------------------------------------------------------
    1      H      -0.7385400000    -0.5406500000     0.0857600000
    2      H      -2.3134000000    -1.0174800000    -0.6701700000
    3      H      -2.0958200000     0.6554900000    -0.0114600000
    4      H      -2.2104400000    -0.7543700000     1.1199500000
    5      H       1.4767400000     3.4720300000     0.0982800000
    6      H       0.1685000000     4.0602200000     1.2054600000
    7      H       0.1828700000     2.3348000000     0.6566800000
    8      H      -0.2168600000     3.6552800000    -0.5174300000
    9      H       3.4885000000    -0.8755300000    -0.0608400000
   10      H       2.2964900000     0.4857800000    -0.0019100000
   11      H       1.9396000000    -1.0667600000     0.8599200000
   12      H       1.9158800000    -1.0096500000    -0.9502200000
   13      He     10.0000000000    10.0000000000    10.0000000000
   14      He    -10.0000000000    10.0000000000    10.0000000000
 ----------------------------------------------------------------
 Nuclear Repulsion Energy =    12.6852507439 hartrees
 There are       14 alpha and        2 beta electrons
 Requested basis set is 6-31G(d)
 There are 28 shells and 28 basis functions

Total QAlloc Memory Limit   2000 MB
Mega-Array Size        61 MB
MEM_STATIC part        62 MB

finished with qalloc call

                       Distance Matrix (Angstroms)
             H (  1)   H (  2)   H (  3)   H (  4)   H (  5)   H (  6)
   H (  2)  1.810796
   H (  3)  1.811743  1.811096
   H (  4)  1.811550  1.812280  1.811334
   H (  5)  4.583582  5.925485  4.550618  5.701014
   H (  6)  4.821250  5.954902  4.266172  5.370935  1.811990
   H (  7)  3.072972  4.385165  2.908422  3.935165  1.810857  1.810646
   H (  8)  4.271044  5.123816  3.575645  5.108854  1.811342  1.811306
   H (  9)  4.242818  5.835536  5.790604  5.821242  4.793097  6.081739
   H ( 10)  3.205098  4.894635  4.395598  4.807178  3.098341  4.331594
   H ( 11)  2.836997  4.520134  4.473261  4.169896  4.625467  5.435266
   H ( 12)  2.887761  4.238549  4.443838  4.623558  4.623597  5.779609
   He( 13) 18.019814 19.668686 18.271783 18.536629 14.604945 14.466628
   He( 14) 17.180573 17.155792 15.812187 15.974636 16.503758 14.697732
             H (  7)   H (  8)   H (  9)   H ( 10)   H ( 11)   H ( 12)
   H (  8)  1.811625
   H (  9)  4.663501  5.870810
   H ( 10)  2.884442  4.077796  1.810394
   H ( 11)  3.833799  5.370761  1.812032  1.811216
   H ( 12)  4.095216  5.147568  1.811662  1.811206  1.811196
   He( 13) 15.570130 15.976734 16.183241 15.808310 16.461600 17.506362
   He( 14) 15.803283 15.702918 20.035900 18.486813 18.669984 19.573143
             He( 13)
   He( 14) 20.000000


 Q-Chem warning in module /home/nmayhall/qcSoftware/qchem/qchem.svn-casman/forms1/BasisType.C, line 1375:

 SAD: How to set up polarization functions for non-Pople basis?

 Requested basis set is rimp2-VDZ
 There are 82 shells and 186 basis functions
 Job number = 2, Threshold = 1.00E-12
Integral type ranges set in mkLRange.C for JobNum: 2  <1-7|1-7>
Symmetry turned off temporarily
 Using the largest function pair in Schwarz integrals
Total number of integrals generated =            1013
Symmetry turned back on
 A cutoff of  1.0D-12 yielded    287 shell pairs
 There are       287 function pairs
 Job number = 11, Threshold = 1.00E-12
Integral type ranges set in mkLRange.C for JobNum: 11  <1-1|8-8>

 -------------------------------------------------------
 OpenMP Integral Computing Module                       
 Release: version 1.0, May 2013, Q-Chem Inc. Pittsburgh 
 -------------------------------------------------------
 Integral Job Info:
 Integral job number is                      11
 Integral operator is                         1
 short-range coefficients                     0
 long-range coefficients              100000000
 Omega coefficients                           0
 if combine SR and LR in K                    0
 Integral screening is                        0
 Integral computing path is                   2
 max size of driver memory is            800000
 size of driver memory is                 11780
 size of scratch memory is               800000
 max col of scratch BK array                289
 max len of scratch array in speh3            1
 max len of scratch index in speh4            2
 max int batch size is                      520
 min int batch size is                       52
 fixed nKL is                               520
 max L of basis functions is                  0
 order of int derivative is                   0
 number of shells is                         28
 number of basis is                          28
 number of cartesian basis is                28
 number of contracted shell pairs           287
 number of primitive shell pairs            811
 maxK2 (contraction) of shell pair            9
 max number of K2 of shell pair               1
 max number of CS2 of shell pair            147
 max number of PS2 of shell pair            441
 mem total for path MDJ                    6780
 -------------------------------------------------------
 Smallest overlap matrix eigenvalue = 2.02E-01
 Multipole matrices computed through 2nd order

  Scale SEOQF with 1.000000e-02/1.000000e-02/1.000000e-02

 Standard Electronic Orientation quadrupole field applied
 Nucleus-field energy     =     0.0000000005 hartrees
GuessMan:  IGuess = 1000
 Guess MOs from SCF MO coefficient file
 Reading MOs from coefficient file
 Reading MOs from coefficient file
scfman initvdwdat 
 A restricted Hartree-Fock SCF calculation will be
 performed using Geometric Direct Minimization
 SCF converges when RMS gradient is below 1.0E-08
Finding J and K together
 Job number = 22, Threshold = 1.00E-12
Integral type ranges set in mkLRange.C for JobNum: 22  <1-1|1-1>
Storing 4399.39% of integrals
Total number of integrals generated =           37747
 MakeJK  time:  CPU       0.01 s  wall       0.01 s
Fock build time:  0.01 s (CPU) 0.01 s (wall)
 ---------------------------------------
  Cycle       Energy        RMS Gradient
 ---------------------------------------
    1     -11.4703786551      9.74E-05  00000 Normal BFGS step
Finding J and K together
 Job number = 22, Threshold = 1.00E-12
Integral type ranges set in mkLRange.C for JobNum: 22  <1-1|1-1>
Storing 4399.39% of integrals
Reusing in-core integrals buffer for job 22
 MakeJK  time:  CPU       0.00 s  wall       0.00 s
Fock build time:  0.00 s (CPU) 0.00 s (wall)
    2     -11.4703786601      4.06E-10  00000 Convergence criterion met
 ---------------------------------------
 SCF time:  CPU 0.02 s  wall 0.02 s
 Obtaining Corresponding orbitals

 Forming corresponding orbitals block-by-block...
 Size of singly occupied alpha block:      12 : 12.0000
 Size of doubly occupied block:             2 : 2.0000
 Size of singly occupied beta block:        0 : 0.0000
 Size of unoccupied block:                 14 : 14.0000
 Use scf_boys =     0 (Canonical)
                    1 (Boys)
                    2 (Pipek-Mezey)
                    3 (ER)
 Build new fock matrix
 I'm here
 I'm here
 Calling AOints...
 Job number = 22, Threshold = 1.00E-12
Integral type ranges set in mkLRange.C for JobNum: 22  <1-1|1-1>
Storing 4399.39% of integrals
 done.
 E(SCF): disk=    -11.470378660125 current=    -11.470378660125 diff=  -8.882e-15
 SCF   energy in the final basis set = -11.4703786601
 Total energy in the final basis set = -11.4703786601
 DevKeyword Parameters: 
 1sf_heis_projection                   1
scf_corresponding_orbs                   1


 ========================================================
                       In SF-CAS-CI                      
 ========================================================
 DevKeyword Parameters: 
 1sf_heis_projection                   1
scf_corresponding_orbs                   1

 Forming orbitals for SF-CAS calculation.
NBas   : 28
NOrb   : 28
NDOcc  : 2
NSOcc  : 12
NDVir  : 14
ISpin  : 0
e_hf: -11.47037866
 Using OPT1 Orbitals: Favg | Favg | Favg 
 A/B mix in Doubly occupied F  : 0.50000000
 A/B mix in Singly occupied F  : 0.50000000
 A/B mix in Doubly unoccupied F: 0.50000000
 Max of F(beta)ds      : 1.619e-16
 Max of F(alpha)sv     : 7.553e-12
 Max of F(average)dv   : 2.338e-11
 Orbital Energies  (D):
    1    -0.91413136    -0.91413136
    2    -0.91412551    -0.91412551
 Orbital Energies  (S):
    3    -0.36829544    -0.36829544
    4    -0.35472649    -0.35472649
    5    -0.35294735    -0.35294735
    6    -0.14879388    -0.14879388
    7    -0.14225160    -0.14225160
    8    -0.13666281    -0.13666281
    9    -0.12866983    -0.12866983
   10    -0.12626855    -0.12626855
   11    -0.12463252    -0.12463252
   12    -0.11464950    -0.11464950
   13    -0.10914348    -0.10914348
   14    -0.10211950    -0.10211950
 Orbital Energies  (V):
   15     0.90483041     0.90483041
   16     0.94751900     0.94751900
   17     0.95404515     0.95404515
   18     0.98777478     0.98777478
   19     1.00350162     1.00350162
   20     1.01089471     1.01089471
   21     1.05670951     1.05670951
   22     1.05993919     1.05993919
   23     1.08360348     1.08360348
   24     1.14463611     1.14463611
   25     1.23664339     1.23664339
   26     1.24596505     1.24596505
   27     1.39985460     1.39985460
   28     1.39986046     1.39986046
 tr(Pa)     :   14.0000000000
 tr(Pb)     :    2.0000000000
 E(core) with new P : -38.46259835
 E(HF) with new P   : -11.47037866
 Difference in Ehf  :  -8.3489e-14

 Number of spin flips: 1
 Use cas_local =    0 (Canonical)
                    1 (Boys)
                    2 (Pipek-Mezey)
                    3 (ER)
 Using Boys orbitals in casman
 
 
 
Calling Get_Boys in C++
 
 
 
Orbital 8 Variance 16.99058163
Orbital 9 Variance 22.10255186
Orbital 2 Variance 22.68003523
Orbital 3 Variance 23.48027518
Orbital 5 Variance 23.90525165
Orbital 12 Variance 24.14915197
Orbital 10 Variance 26.55548009
Orbital 11 Variance 26.81741571
Orbital 1 Variance 27.15729414
Orbital 6 Variance 27.59753791
Orbital 7 Variance 28.09713123
Orbital 4 Variance 29.68393778
          ***** NUMBER OF SADDLE POINTS SO FAR = 0 ******

Initially in boys_jacobi.C before sweep, get_boys, boysval = 99.396608
In BOYS_JACOBI SWEEPS for get_boys, ending in round     6  because max_diff = 6.412597e-07


---> BEGIN 2nd Der Calculation    ******  
Guessing MaxD =  20 and MinD = 10
in get_boys.C: p = 0 guessthresh  52.5593698853 numsofar 18 MinD 10
in get_boys.C: p = 1 guessthresh  52.0593698853 numsofar 18 MinD 10
in get_boys.C: p = 2 guessthresh  51.8093698853 numsofar 18 MinD 10
in get_boys.C: p = 3 guessthresh  51.6843698853 numsofar 8 MinD 10
DimInGuess 8 mineval  51.5593698853 guessthresh  51.6843698853
round 0 sizeofsub 8 eval0 5.037607e+01 diffeval0 1.000494e+05 length_qM 1.866797e-01 thresh 1.000000e-08
round 1 sizeofsub 9 eval0 5.036838e+01 diffeval0 7.690731e-03 length_qM 7.597125e-01 thresh 1.000000e-08
round 2 sizeofsub 10 eval0 5.036000e+01 diffeval0 8.374378e-03 length_qM 2.725740e-02 thresh 1.000000e-08
round 3 sizeofsub 11 eval0 5.035994e+01 diffeval0 6.198084e-05 length_qM 6.126698e-02 thresh 1.000000e-08
round 4 sizeofsub 12 eval0 5.035987e+01 diffeval0 7.682899e-05 length_qM 4.157694e-02 thresh 1.000000e-08
round 5 sizeofsub 13 eval0 5.035984e+01 diffeval0 2.699698e-05 length_qM 2.292311e-03 thresh 1.000000e-08
round 6 sizeofsub 14 eval0 5.035984e+01 diffeval0 2.085824e-08 length_qM 2.772704e-05 thresh 1.000000e-08
round 7 sizeofsub 15 eval0 5.035984e+01 diffeval0 6.978240e-11 length_qM 1.131065e-05 thresh 1.000000e-08
round 8 sizeofsub 16 eval0 5.035984e+01 diffeval0 2.604281e-10 length_qM 1.009097e-04 thresh 1.000000e-08
round 9 sizeofsub 17 eval0 5.035984e+01 diffeval0 6.669154e-11 length_qM 1.295941e-05 thresh 1.000000e-08
round 10 sizeofsub 18 eval0 5.035984e+01 diffeval0 1.231371e-10 length_qM 2.525271e-05 thresh 1.000000e-08
round 11 sizeofsub 19 eval0 5.035984e+01 diffeval0 2.899014e-12 length_qM 4.585644e-07 thresh 1.000000e-08
Converged to smallest eigenvalue: eval0 5.035984e+01

Success!!! No Negative Eigenvalues: Ending Get Boys in C++ ...Bye Bye
Orbital 12 Variance 2.76320750
Orbital 11 Variance 2.76335617
Orbital 4 Variance 2.76875526
Orbital 9 Variance 2.77126730
Orbital 6 Variance 2.77162142
Orbital 5 Variance 2.77252320
Orbital 10 Variance 2.77467493
Orbital 1 Variance 2.77544344
Orbital 3 Variance 2.77597378
Orbital 2 Variance 2.77600091
Orbital 7 Variance 2.77603764
Orbital 8 Variance 2.77626766
EXECUTING ORTHO_FUNC DESTRUCTOR

 Dimensions of orbital sub-spaces:    
 Number Hole Orbs:Alpha:Beta:       2    2    2
 Number Active Orbs:Alpha:Beta:    12   11    1
 Number Part Orbs:Alpha:Beta:      14    0    0

 Dimensions in SF-RAS-hp calculation: 
 Number of active space determinants:  144
 Number of hole space determinants:    1608
 Number of part space determinants:    11256
 Number of hole-part determinants:     130060
 Total 1x space:                       13008
 Total singles space:                  143068
 REM_MEM_TOT: 2000
 Memory Used: 0
 Memory Left: 2000
 Memory Need: 2
 Constructing 1e MO integrals
 Form (P|Q)**(-1/2)...
 Job number = 66, Threshold = 1.00E-12
Integral type ranges set in mkLRange.C for JobNum: 66  <2-7|2-7>
Symmetry turned off temporarily
Storing 4399.39% of integrals
Total number of integrals generated =           19965
Symmetry turned back on
 Forming (pq|P)...
 Forming Active-Active (aa|P) integrals...

 Entering first-index batching code with I1Strt =    3 batch size =   12
 Job number = 65, Threshold = 1.00E-12
Integral type ranges set in mkLRange.C for JobNum: 65  <1-1|2-7>
Symmetry turned off temporarily
Storing 4399.39% of integrals
Total number of integrals generated =           56826
Symmetry turned back on
 Forming Active-Active B integrals...
 Contracting B matrices to form 2e integrals. 
 Forming 2J-K over o,v with exact integrals
 Calling AOints... Job number = 22, Threshold = 1.00E-12
Integral type ranges set in mkLRange.C for JobNum: 22  <1-1|1-1>
Storing 4399.39% of integrals
Total number of integrals generated =           37747
 done.

 ROHF energy found on disk: 
 E(ROHF):         -11.47037866
-11.47037866
 First 10 Diagonal elements of H: 
 11111111111_ | 1___________        -10.93007660
 11111111111_ | _1__________        -10.91464740
 11111111111_ | __1_________        -11.07756995
 11111111111_ | ___1________        -10.97091463
 11111111111_ | ____1_______        -10.99101719
 11111111111_ | _____1______        -11.07672200
 11111111111_ | ______1_____        -11.07750658
 11111111111_ | _______1____        -10.92918292
 11111111111_ | ________1___        -10.99399576
 11111111111_ | _________1__        -10.92000570
 Fill S2_CAS Matrix...  done.
 Fill H_CAS Matrix...  done.

 Diagonalizing H_CAS 
 Entering cast_sfcas_to_sfcis
 ===================================================================
 Theory           State:          Energy (au)       (eV)       <S2>
 -------------------------------------------------------------------
 SF-CAS               1:       -11.5290469560     0.0000    30.0000
 SF-CAS               2:       -11.5284272514     0.0169    30.0000
 SF-CAS               3:       -11.5276506845     0.0380    30.0000
 SF-CAS               4:       -11.5271424475     0.0518    30.0000
 SF-CAS               5:       -11.5268937242     0.0586    30.0000
 SF-CAS               6:       -11.5268818698     0.0589    30.0000
 SF-CAS               7:       -11.5266896704     0.0641    30.0000
 SF-CAS               8:       -11.5265810480     0.0671    30.0000
 SF-CAS               9:       -11.5265209731     0.0687    30.0000
 SF-CAS              10:       -11.4718586552     1.5562    30.0000
 SF-CAS              11:       -11.4715553199     1.5644    30.0000
 SF-CAS              12:       -11.4703786601     1.5965    42.0000
 SF-CAS              13:       -11.2087883647     8.7148    30.0000
 SF-CAS              14:       -11.2065358155     8.7761    30.0000
 SF-CAS              15:       -11.2037106472     8.8529    30.0000
 SF-CAS              16:       -11.2030789263     8.8701    30.0000
 SF-CAS              17:       -11.2030398559     8.8712    30.0000
 SF-CAS              18:       -11.2022688496     8.8922    30.0000
 SF-CAS              19:       -11.2020952517     8.8969    30.0000
 SF-CAS              20:       -11.2016693395     8.9085    30.0000
 SF-CAS              21:       -11.2011287904     8.9232    30.0000
 SF-CAS              22:       -11.1849603982     9.3632    30.0000
 SF-CAS              23:       -11.1813328260     9.4619    30.0000
 SF-CAS              24:       -11.1770664864     9.5780    30.0000
 SF-CAS              25:       -11.1726990862     9.6968    30.0000
 SF-CAS              26:       -11.1720345303     9.7149    30.0000
 SF-CAS              27:       -11.1692943274     9.7895    30.0000
 SF-CAS              28:       -11.1607625464    10.0216    30.0000
 SF-CAS              29:       -11.1581875800    10.0917    30.0000
 SF-CAS              30:       -11.1550723567    10.1765    30.0000
 SF-CAS              31:       -11.1487775735    10.3478    30.0000
 SF-CAS              32:       -11.1443462533    10.4683    30.0000
 SF-CAS              33:       -11.1427705678    10.5112    30.0000
 SF-CAS              34:       -11.1423431812    10.5228    30.0000
 SF-CAS              35:       -11.1387199003    10.6214    30.0000
 SF-CAS              36:       -11.1335420058    10.7623    30.0000
 SF-CAS              37:       -11.1323728593    10.7942    30.0000
 SF-CAS              38:       -11.1289479551    10.8874    30.0000
 SF-CAS              39:       -11.1282052708    10.9076    30.0000
 SF-CAS              40:       -11.0862588638    12.0490    30.0000
 SF-CAS              41:       -11.0860657532    12.0542    30.0000
 SF-CAS              42:       -11.0853426082    12.0739    30.0000
 SF-CAS              43:       -11.0847234112    12.0908    30.0000
 SF-CAS              44:       -11.0840673239    12.1086    30.0000
 SF-CAS              45:       -11.0838228687    12.1153    30.0000
 SF-CAS              46:       -11.0817820364    12.1708    30.0000
 SF-CAS              47:       -11.0815772015    12.1764    30.0000
 SF-CAS              48:       -11.0809308074    12.1940    30.0000
 SF-CAS              49:       -11.0806873259    12.2006    30.0000
 SF-CAS              50:       -11.0803458530    12.2099    30.0000
 SF-CAS              51:       -11.0797482434    12.2262    30.0000
 SF-CAS              52:       -11.0794163780    12.2352    30.0000
 SF-CAS              53:       -11.0788138547    12.2516    30.0000
 SF-CAS              54:       -11.0778123019    12.2788    30.0000
 SF-CAS              55:       -11.0773891933    12.2904    30.0000
 SF-CAS              56:       -11.0770753396    12.2989    30.0000
 SF-CAS              57:       -11.0746431034    12.3651    30.0000
 SF-CAS              58:       -10.9885063705    14.7090    30.0000
 SF-CAS              59:       -10.9872744410    14.7425    30.0000
 SF-CAS              60:       -10.9858750528    14.7806    30.0000
 SF-CAS              61:       -10.9845355073    14.8171    30.0000
 SF-CAS              62:       -10.9785016275    14.9812    30.0000
 SF-CAS              63:       -10.9783571024    14.9852    30.0000
 SF-CAS              64:       -10.9698236795    15.2174    30.0000
 SF-CAS              65:       -10.9682999396    15.2589    30.0000
 SF-CAS              66:       -10.9640481178    15.3746    30.0000
 SF-CAS              67:       -10.9619230176    15.4324    30.0000
 SF-CAS              68:       -10.9585175906    15.5250    30.0000
 SF-CAS              69:       -10.9553707581    15.6107    30.0000
 SF-CAS              70:       -10.9529944726    15.6753    30.0000
 SF-CAS              71:       -10.9521807696    15.6975    30.0000
 SF-CAS              72:       -10.9500319995    15.7560    30.0000
 SF-CAS              73:       -10.9496206456    15.7671    30.0000
 SF-CAS              74:       -10.9479374021    15.8129    30.0000
 SF-CAS              75:       -10.9467996978    15.8439    30.0000
 SF-CAS              76:       -10.9452239631    15.8868    30.0000
 SF-CAS              77:       -10.9444131984    15.9088    30.0000
 SF-CAS              78:       -10.9407684951    16.0080    30.0000
 SF-CAS              79:       -10.9394583867    16.0437    30.0000
 SF-CAS              80:       -10.9385712339    16.0678    30.0000
 SF-CAS              81:       -10.9370510886    16.1092    30.0000
 SF-CAS              82:       -10.9359084395    16.1403    30.0000
 SF-CAS              83:       -10.9351724430    16.1603    30.0000
 SF-CAS              84:       -10.9344513573    16.1799    30.0000
 SF-CAS              85:       -10.9320547998    16.2451    30.0000
 SF-CAS              86:       -10.9303696846    16.2910    30.0000
 SF-CAS              87:       -10.9295101497    16.3144    30.0000
 SF-CAS              88:       -10.9276823127    16.3641    30.0000
 SF-CAS              89:       -10.9263831802    16.3995    30.0000
 SF-CAS              90:       -10.9255305768    16.4227    30.0000
 SF-CAS              91:       -10.9252272032    16.4309    30.0000
 SF-CAS              92:       -10.9242647943    16.4571    30.0000
 SF-CAS              93:       -10.9222468101    16.5120    30.0000
 SF-CAS              94:       -10.9215726168    16.5304    30.0000
 SF-CAS              95:       -10.9201519330    16.5690    30.0000
 SF-CAS              96:       -10.9178740120    16.6310    30.0000
 SF-CAS              97:       -10.9164339518    16.6702    30.0000
 SF-CAS              98:       -10.9162432001    16.6754    30.0000
 SF-CAS              99:       -10.9148839117    16.7124    30.0000
 SF-CAS             100:       -10.9145009536    16.7228    30.0000
 SF-CAS             101:       -10.9136203211    16.7468    30.0000
 SF-CAS             102:       -10.9127942202    16.7693    30.0000
 SF-CAS             103:       -10.9112406726    16.8115    30.0000
 SF-CAS             104:       -10.9109265265    16.8201    30.0000
 SF-CAS             105:       -10.9105763953    16.8296    30.0000
 SF-CAS             106:       -10.9096642699    16.8544    30.0000
 SF-CAS             107:       -10.9068087320    16.9321    30.0000
 SF-CAS             108:       -10.9048987141    16.9841    30.0000
 SF-CAS             109:       -10.9043280632    16.9996    30.0000
 SF-CAS             110:       -10.9033595030    17.0260    30.0000
 SF-CAS             111:       -10.9027017908    17.0439    30.0000
 SF-CAS             112:       -10.9006109316    17.1008    30.0000
 SF-CAS             113:       -10.8991130367    17.1415    30.0000
 SF-CAS             114:       -10.8954246177    17.2419    30.0000
 SF-CAS             115:       -10.8948567648    17.2574    30.0000
 SF-CAS             116:       -10.8938923727    17.2836    30.0000
 SF-CAS             117:       -10.8909672653    17.3632    30.0000
 SF-CAS             118:       -10.8836785000    17.5615    30.0000
 SF-CAS             119:       -10.8828552297    17.5839    30.0000
 SF-CAS             120:       -10.8821813048    17.6023    30.0000
 SF-CAS             121:       -10.8813797510    17.6241    30.0000
 SF-CAS             122:       -10.8800987858    17.6590    30.0000
 SF-CAS             123:       -10.8792800834    17.6812    30.0000
 SF-CAS             124:       -10.8781410338    17.7122    30.0000
 SF-CAS             125:       -10.8759516083    17.7718    30.0000
 SF-CAS             126:       -10.8737380952    17.8320    30.0000
 SF-CAS             127:       -10.7167535698    22.1038    30.0000
 SF-CAS             128:       -10.7127824537    22.2119    30.0000
 SF-CAS             129:       -10.7087258660    22.3223    30.0000
 SF-CAS             130:       -10.7029664948    22.4790    30.0000
 SF-CAS             131:       -10.6994872642    22.5737    30.0000
 SF-CAS             132:       -10.6981992914    22.6087    30.0000
 SF-CAS             133:       -10.6880026531    22.8862    30.0000
 SF-CAS             134:       -10.6876169800    22.8967    30.0000
 SF-CAS             135:       -10.6813583110    23.0670    30.0000
 SF-CAS             136:       -10.6789258931    23.1332    30.0000
 SF-CAS             137:       -10.6780627484    23.1567    30.0000
 SF-CAS             138:       -10.6756438733    23.2225    30.0000
 SF-CAS             139:       -10.6724885259    23.3084    30.0000
 SF-CAS             140:       -10.6701825090    23.3711    30.0000
 SF-CAS             141:       -10.6675944642    23.4415    30.0000
 SF-CAS             142:       -10.6613075251    23.6126    30.0000
 SF-CAS             143:       -10.6571481443    23.7258    30.0000
 SF-CAS             144:       -10.6532079160    23.8330    30.0000
 ===================================================================

              Active Space Coefficients > 0.20
 -------------------------------------------------------------------
 State  1                       Configuration         Coeff.   <S^2>
 -------------------------------------------------------------------
                  11111111111_ | ___________1       0.446617  31.000
                  1111111111_1 | __________1_       0.479423  31.000
                  11111111_111 | ________1___       0.216107  31.000
                  111111_11111 | ______1_____       0.214445  31.000
                  111_11111111 | ___1________       0.336553  31.000
                  11_111111111 | __1_________       0.255585  31.000
                  1_1111111111 | _1__________       0.235888  31.000
 -------------------------------------------------------------------
 State  2                       Configuration         Coeff.   <S^2>
 -------------------------------------------------------------------
                  11111111111_ | ___________1       0.508910  31.000
                  1111111111_1 | __________1_      -0.419380  31.000
                  11111_111111 | _____1______      -0.271716  31.000
                  1_1111111111 | _1__________      -0.230280  31.000
                  _11111111111 | 1___________      -0.397309  31.000
 -------------------------------------------------------------------
 State  3                       Configuration         Coeff.   <S^2>
 -------------------------------------------------------------------
                  1111111111_1 | __________1_      -0.233573  31.000
                  111111111_11 | _________1__      -0.303582  31.000
                  11111_111111 | _____1______      -0.404899  31.000
                  111_11111111 | ___1________       0.566593  31.000
                  11_111111111 | __1_________      -0.236952  31.000
                  _11111111111 | 1___________       0.229574  31.000
 -------------------------------------------------------------------
 State  4                       Configuration         Coeff.   <S^2>
 -------------------------------------------------------------------
                  11111111111_ | ___________1      -0.320378  31.000
                  1111111111_1 | __________1_       0.215781  31.000
                  11111111_111 | ________1___       0.268648  31.000
                  1111_1111111 | ____1_______       0.214589  31.000
                  11_111111111 | __1_________      -0.298934  31.000
                  1_1111111111 | _1__________       0.201697  31.000
                  _11111111111 | 1___________      -0.607549  31.000
 -------------------------------------------------------------------
 State  5                       Configuration         Coeff.   <S^2>
 -------------------------------------------------------------------
                  111111111_11 | _________1__       0.695282  31.000
                  1111111_1111 | _______1____      -0.367687  31.000
                  11111_111111 | _____1______      -0.296724  31.000
                  11_111111111 | __1_________      -0.207163  31.000
 -------------------------------------------------------------------
 State  6                       Configuration         Coeff.   <S^2>
 -------------------------------------------------------------------
                  11111111111_ | ___________1       0.265119  31.000
                  1111111111_1 | __________1_       0.259934  31.000
                  11111111_111 | ________1___      -0.203024  31.000
                  11111_111111 | _____1______      -0.514826  31.000
                  1111_1111111 | ____1_______      -0.311216  31.000
                  111_11111111 | ___1________      -0.350540  31.000
                  1_1111111111 | _1__________       0.269221  31.000
 -------------------------------------------------------------------
 State  7                       Configuration         Coeff.   <S^2>
 -------------------------------------------------------------------
                  11111111_111 | ________1___      -0.647498  31.000
                  1111_1111111 | ____1_______       0.633659  31.000
 -------------------------------------------------------------------
 State  8                       Configuration         Coeff.   <S^2>
 -------------------------------------------------------------------
                  1111111_1111 | _______1____      -0.631554  31.000
                  1_1111111111 | _1__________       0.612465  31.000
 -------------------------------------------------------------------
 State  9                       Configuration         Coeff.   <S^2>
 -------------------------------------------------------------------
                  111111_11111 | ______1_____      -0.704300  31.000
                  11_111111111 | __1_________       0.555642  31.000
 -------------------------------------------------------------------
 State  10                      Configuration         Coeff.   <S^2>
 -------------------------------------------------------------------
                  11111111111_ | ___________1       0.327970  31.000
                  11111111_111 | ________1___       0.353623  31.000
                  111111_11111 | ______1_____      -0.353117  31.000
                  11111_111111 | _____1______       0.347280  31.000
                  1111_1111111 | ____1_______       0.356038  31.000
                  111_11111111 | ___1________      -0.357013  31.000
                  11_111111111 | __1_________      -0.353207  31.000
                  _11111111111 | 1___________       0.370384  31.000
 -------------------------------------------------------------------
 State  11                      Configuration         Coeff.   <S^2>
 -------------------------------------------------------------------
                  11111111111_ | ___________1      -0.212811  31.000
                  1111111111_1 | __________1_      -0.390031  31.000
                  111111111_11 | _________1__       0.408960  31.000
                  1111111_1111 | _______1____       0.414016  31.000
                  111111_11111 | ______1_____       0.220064  31.000
                  11111_111111 | _____1______      -0.208862  31.000
                  11_111111111 | __1_________       0.220295  31.000
                  1_1111111111 | _1__________       0.415249  31.000
 -------------------------------------------------------------------
 State  12                      Configuration         Coeff.   <S^2>
 -------------------------------------------------------------------
                  11111111111_ | ___________1       0.288675  31.000
                  1111111111_1 | __________1_      -0.288675  31.000
                  111111111_11 | _________1__       0.288675  31.000
                  11111111_111 | ________1___      -0.288675  31.000
                  1111111_1111 | _______1____       0.288675  31.000
                  111111_11111 | ______1_____      -0.288675  31.000
                  11111_111111 | _____1______       0.288675  31.000
                  1111_1111111 | ____1_______      -0.288675  31.000
                  111_11111111 | ___1________       0.288675  31.000
                  11_111111111 | __1_________      -0.288675  31.000
                  1_1111111111 | _1__________       0.288675  31.000
                  _11111111111 | 1___________      -0.288675  31.000
 -------------------------------------------------------------------
 State  13                      Configuration         Coeff.   <S^2>
 -------------------------------------------------------------------
                  11111111111_ | __1_________      -0.286653  30.000
                  11111111111_ | ___1________       0.231867  30.000
                  11111111111_ | ____1_______      -0.245988  30.000
                  11111111111_ | _____1______       0.293668  30.000
                  11111111111_ | ______1_____       0.289354  30.000
                  11111111111_ | ________1___       0.247633  30.000
                  _11111111111 | ___1________       0.255509  30.000
                  _11111111111 | ____1_______      -0.205944  30.000
 -------------------------------------------------------------------
 State  14                      Configuration         Coeff.   <S^2>
 -------------------------------------------------------------------
                  1111111111_1 | _1__________       0.270435  30.000
                  1111111111_1 | _______1____      -0.265368  30.000
                  1111111111_1 | _________1__      -0.288272  30.000
                  11111_111111 | ___________1      -0.212260  30.000
                  111_11111111 | 1___________      -0.212366  30.000
                  111_11111111 | ____1_______      -0.219164  30.000
                  111_11111111 | ________1___       0.218458  30.000
 -------------------------------------------------------------------
 State  15                      Configuration         Coeff.   <S^2>
 -------------------------------------------------------------------
                  11111111111_ | _____1______       0.243891  30.000
                  11111_111111 | ___________1       0.245722  30.000
                  111_11111111 | ____1_______      -0.210602  30.000
                  111_11111111 | ________1___       0.207704  30.000
                  11_111111111 | _____1______       0.211131  30.000
                  11_111111111 | ______1_____       0.288657  30.000
                  11_111111111 | ___________1      -0.215199  30.000
                  _11111111111 | ___1________      -0.220740  30.000
                  _11111111111 | ____1_______       0.263397  30.000
                  _11111111111 | ________1___      -0.264261  30.000
 -------------------------------------------------------------------
 State  16                      Configuration         Coeff.   <S^2>
 -------------------------------------------------------------------
                  111111111_11 | _______1____      -0.272160  30.000
                  111111111_11 | __________1_      -0.336421  30.000
                  1_1111111111 | _______1____      -0.318878  30.000
                  1_1111111111 | __________1_      -0.282354  30.000
 -------------------------------------------------------------------
 State  17                      Configuration         Coeff.   <S^2>
 -------------------------------------------------------------------
                  111111_11111 | __1_________      -0.316059  30.000
                  111111_11111 | _____1______       0.407093  30.000
                  111111_11111 | ______1_____      -0.258916  31.000
                  111111_11111 | ___________1      -0.435487  30.000
                  11_111111111 | _____1______       0.346098  30.000
                  11_111111111 | ___________1      -0.351881  30.000
 -------------------------------------------------------------------
 State  18                      Configuration         Coeff.   <S^2>
 -------------------------------------------------------------------
                  1111111111_1 | _______1____      -0.292942  30.000
                  111111111_11 | _1__________       0.238120  30.000
                  11111111_111 | ____1_______       0.204690  30.000
                  1111111_1111 | __________1_       0.250109  30.000
                  111_11111111 | 1___________       0.291776  30.000
                  111_11111111 | ____1_______       0.259446  30.000
                  111_11111111 | ________1___      -0.242620  30.000
                  1_1111111111 | _________1__       0.290141  30.000
 -------------------------------------------------------------------
 State  19                      Configuration         Coeff.   <S^2>
 -------------------------------------------------------------------
                  111111111_11 | _1__________      -0.297942  30.000
                  111111111_11 | _______1____       0.234852  30.000
                  111111111_11 | __________1_       0.282314  30.000
                  1111111_1111 | __________1_      -0.244357  30.000
                  11111_111111 | __1_________      -0.251193  30.000
                  11111_111111 | ______1_____       0.248454  30.000
                  11111_111111 | ___________1      -0.231429  30.000
 -------------------------------------------------------------------
 State  20                      Configuration         Coeff.   <S^2>
 -------------------------------------------------------------------
                  1111111111_1 | _1__________       0.304797  30.000
                  1111111111_1 | _________1__      -0.218298  30.000
                  1111111_1111 | _1__________       0.305646  30.000
                  1111111_1111 | _______1____       0.225554  31.000
                  1111111_1111 | _________1__      -0.392541  30.000
                  1111111_1111 | __________1_      -0.308453  30.000
                  1_1111111111 | __________1_      -0.291179  30.000
 -------------------------------------------------------------------
 State  21                      Configuration         Coeff.   <S^2>
 -------------------------------------------------------------------
                  11111111_111 | 1___________      -0.382950  30.000
                  11111111_111 | ___1________       0.397823  30.000
                  11111111_111 | ____1_______      -0.251548  30.000
                  11111111_111 | ________1___      -0.228072  31.000
                  1111_1111111 | 1___________      -0.400335  30.000
                  1111_1111111 | ___1________       0.417706  30.000
                  1111_1111111 | ____1_______       0.246087  31.000
                  1111_1111111 | ________1___       0.290658  30.000
 -------------------------------------------------------------------
 State  22                      Configuration         Coeff.   <S^2>
 -------------------------------------------------------------------
                  11111111111_ | 1___________      -0.216651  30.000
                  11111111111_ | ___1________       0.262297  30.000
                  11111111111_ | ____1_______      -0.273477  30.000
                  11111111111_ | ________1___       0.277698  30.000
                  1111111111_1 | _____1______      -0.223595  30.000
                  1111111111_1 | ___________1       0.225924  30.000
 -------------------------------------------------------------------
 State  23                      Configuration         Coeff.   <S^2>
 -------------------------------------------------------------------
                  11111111111_ | 1___________      -0.202030  30.000
                  11111111111_ | ___1________       0.239286  30.000
                  11111111111_ | ____1_______      -0.245968  30.000
                  11111111111_ | ________1___       0.250979  30.000
                  1111111111_1 | _____1______       0.255172  30.000
                  1111111111_1 | ______1_____       0.208812  30.000
                  1111111111_1 | ___________1      -0.252730  30.000
 -------------------------------------------------------------------
 State  24                      Configuration         Coeff.   <S^2>
 -------------------------------------------------------------------
                  11111111111_ | __________1_       0.202799  30.000
                  1111111111_1 | ___1________      -0.229081  30.000
                  11111_111111 | _______1____       0.216887  30.000
                  11111_111111 | __________1_       0.260845  30.000
                  111_11111111 | _________1__       0.225095  30.000
                  111_11111111 | __________1_       0.263495  30.000
 -------------------------------------------------------------------
 State  25                      Configuration         Coeff.   <S^2>
 -------------------------------------------------------------------
                  11111111_111 | ___________1       0.249041  30.000
                  11111_111111 | _______1____      -0.201821  30.000
                  11111_111111 | __________1_      -0.262024  30.000
                  111_11111111 | _________1__       0.231634  30.000
                  111_11111111 | __________1_       0.256293  30.000
 -------------------------------------------------------------------
 State  26                      Configuration         Coeff.   <S^2>
 -------------------------------------------------------------------
                  11111111_111 | __1_________       0.255070  30.000
                  11111111_111 | _____1______      -0.261303  30.000
                  11111111_111 | ______1_____      -0.266490  30.000
                  11111111_111 | ___________1       0.370294  30.000
                  1111_1111111 | __1_________       0.250985  30.000
                  1111_1111111 | _____1______      -0.254818  30.000
                  1111_1111111 | ______1_____      -0.241955  30.000
                  1111_1111111 | ___________1       0.352544  30.000
 -------------------------------------------------------------------
 State  27                      Configuration         Coeff.   <S^2>
 -------------------------------------------------------------------
                  1111111111_1 | 1___________      -0.228482  30.000
                  1111111111_1 | ___1________       0.319540  30.000
                  1111111111_1 | ____1_______      -0.241336  30.000
                  1111111111_1 | ________1___       0.250809  30.000
                  111111111_11 | ___1________       0.247551  30.000
                  11111_111111 | __________1_       0.214028  30.000
 -------------------------------------------------------------------
 State  28                      Configuration         Coeff.   <S^2>
 -------------------------------------------------------------------
                  11111111111_ | __________1_       0.200346  30.000
                  1111_1111111 | ___________1      -0.220825  30.000
                  111_11111111 | ___________1       0.239494  30.000
 -------------------------------------------------------------------
 State  29                      Configuration         Coeff.   <S^2>
 -------------------------------------------------------------------
                  11111111111_ | __________1_      -0.244231  30.000
                  111111_11111 | __________1_       0.215603  30.000
                  11111_111111 | __________1_       0.204315  30.000
 -------------------------------------------------------------------
 State  30                      Configuration         Coeff.   <S^2>
 -------------------------------------------------------------------
                  111111111_11 | 1___________       0.245873  30.000
                  111111111_11 | ___1________      -0.350246  30.000
                  111111111_11 | ____1_______       0.262278  30.000
                  111111111_11 | ________1___      -0.262100  30.000
                  1111111_1111 | ___1________       0.262878  30.000
                  1111111_1111 | ____1_______      -0.222531  30.000
                  1111111_1111 | ________1___       0.220387  30.000
 -------------------------------------------------------------------
 State  31                      Configuration         Coeff.   <S^2>
 -------------------------------------------------------------------
                  1111111_1111 | __1_________      -0.282240  30.000
                  1111111_1111 | _____1______       0.358981  30.000
                  1111111_1111 | ______1_____       0.283904  30.000
                  1111111_1111 | ___________1      -0.322798  30.000
                  1_1111111111 | __1_________      -0.226133  30.000
                  1_1111111111 | ___1________      -0.206455  30.000
                  1_1111111111 | _____1______       0.276405  30.000
                  1_1111111111 | ______1_____       0.236686  30.000
                  1_1111111111 | ___________1      -0.292368  30.000
 -------------------------------------------------------------------
 State  32                      Configuration         Coeff.   <S^2>
 -------------------------------------------------------------------
                  111111_11111 | 1___________      -0.279263  30.000
                  111111_11111 | ___1________       0.328887  30.000
                  111111_11111 | ____1_______      -0.324089  30.000
                  111111_11111 | ________1___       0.342368  30.000
                  11_111111111 | 1___________      -0.246182  30.000
                  11_111111111 | ___1________       0.292527  30.000
                  11_111111111 | ____1_______      -0.297857  30.000
                  11_111111111 | ________1___       0.291244  30.000
 -------------------------------------------------------------------
 State  33                      Configuration         Coeff.   <S^2>
 -------------------------------------------------------------------
                  _11111111111 | __1_________      -0.294857  30.000
                  _11111111111 | _____1______       0.305142  30.000
                  _11111111111 | ______1_____       0.296461  30.000
                  _11111111111 | ___________1      -0.353218  30.000
 -------------------------------------------------------------------
 State  34                      Configuration         Coeff.   <S^2>
 -------------------------------------------------------------------
                  11111111_111 | _1__________       0.287507  30.000
                  11111111_111 | _______1____      -0.289963  30.000
                  11111111_111 | _________1__      -0.320056  30.000
                  11111111_111 | __________1_      -0.349047  30.000
                  1111_1111111 | _1__________       0.297708  30.000
                  1111_1111111 | _______1____      -0.313560  30.000
                  1111_1111111 | _________1__      -0.337696  30.000
                  1111_1111111 | __________1_      -0.359743  30.000
 -------------------------------------------------------------------
 State  35                      Configuration         Coeff.   <S^2>
 -------------------------------------------------------------------
                  11111_111111 | 1___________      -0.262780  30.000
                  11111_111111 | ___1________       0.298382  30.000
                  11111_111111 | ____1_______      -0.312329  30.000
                  11111_111111 | ________1___       0.310207  30.000
 -------------------------------------------------------------------
 State  36                      Configuration         Coeff.   <S^2>
 -------------------------------------------------------------------
                  111111_11111 | _1__________       0.301053  30.000
                  111111_11111 | _______1____      -0.311952  30.000
                  111111_11111 | _________1__      -0.288067  30.000
                  111111_11111 | __________1_      -0.351424  30.000
                  11_111111111 | _1__________       0.302363  30.000
                  11_111111111 | _______1____      -0.324837  30.000
                  11_111111111 | _________1__      -0.295230  30.000
                  11_111111111 | __________1_      -0.345460  30.000
 -------------------------------------------------------------------
 State  37                      Configuration         Coeff.   <S^2>
 -------------------------------------------------------------------
                  111111111_11 | __1_________       0.215868  30.000
                  111111111_11 | _____1______      -0.253726  30.000
                  111111111_11 | ______1_____      -0.220003  30.000
                  111111111_11 | ___________1       0.231010  30.000
                  1111111_1111 | 1___________      -0.221284  30.000
                  1111111_1111 | ___1________       0.263305  30.000
                  1111111_1111 | ____1_______      -0.225126  30.000
                  1111111_1111 | ________1___       0.220150  30.000
 -------------------------------------------------------------------
 State  38                      Configuration         Coeff.   <S^2>
 -------------------------------------------------------------------
                  1_1111111111 | 1___________       0.225831  30.000
                  1_1111111111 | ___1________      -0.265560  30.000
                  1_1111111111 | ____1_______       0.219266  30.000
                  1_1111111111 | _____1______      -0.212821  30.000
                  1_1111111111 | ________1___      -0.223134  30.000
                  _11111111111 | _________1__      -0.224777  30.000
                  _11111111111 | __________1_      -0.229738  30.000
 -------------------------------------------------------------------
 State  39                      Configuration         Coeff.   <S^2>
 -------------------------------------------------------------------
                  _11111111111 | _1__________      -0.236447  30.000
                  _11111111111 | _______1____       0.238775  30.000
                  _11111111111 | _________1__       0.275903  30.000
                  _11111111111 | __________1_       0.261234  30.000
 -------------------------------------------------------------------
 State  40                      Configuration         Coeff.   <S^2>
 -------------------------------------------------------------------
                  1111111111_1 | _______1____      -0.303636  30.000
                  1111111111_1 | _________1__       0.409394  30.000
                  111111111_11 | __________1_      -0.231327  30.000
                  1111111_1111 | _1__________       0.282893  30.000
                  111_11111111 | 1___________       0.205493  30.000
                  1_1111111111 | _______1____       0.350477  30.000
                  1_1111111111 | _________1__      -0.272879  30.000
 -------------------------------------------------------------------
 State  41                      Configuration         Coeff.   <S^2>
 -------------------------------------------------------------------
                  11111111_111 | 1___________       0.261415  30.000
                  11111111_111 | ____1_______      -0.330516  30.000
                  1111_1111111 | 1___________      -0.253753  30.000
                  1111_1111111 | ________1___      -0.309252  30.000
                  111_11111111 | 1___________       0.425076  30.000
                  111_11111111 | ____1_______      -0.244949  30.000
                  111_11111111 | ________1___       0.259218  30.000
                  _11111111111 | ___1________      -0.213750  30.000
 -------------------------------------------------------------------
 State  42                      Configuration         Coeff.   <S^2>
 -------------------------------------------------------------------
                  11111111111_ | __1_________       0.205971  30.000
                  11111111111_ | _____1______       0.379181  30.000
                  11111111111_ | ______1_____      -0.225934  30.000
                  1111111111_1 | _1__________      -0.352602  30.000
                  111111111_11 | _______1____      -0.302560  30.000
                  1111111_1111 | _________1__      -0.270555  30.000
                  111111_11111 | __1_________      -0.255325  30.000
                  11_111111111 | _____1______       0.222487  30.000
                  11_111111111 | ______1_____      -0.272804  30.000
                  1_1111111111 | __________1_       0.207138  30.000
 -------------------------------------------------------------------
 State  43                      Configuration         Coeff.   <S^2>
 -------------------------------------------------------------------
                  11111111_111 | 1___________      -0.302535  30.000
                  11111111_111 | ___1________      -0.241353  30.000
                  1111_1111111 | 1___________      -0.264195  30.000
                  1111_1111111 | ___1________      -0.231176  30.000
                  111_11111111 | ____1_______       0.446915  30.000
                  111_11111111 | ________1___       0.406522  30.000
                  _11111111111 | ____1_______      -0.377007  30.000
                  _11111111111 | ________1___      -0.367227  30.000
 -------------------------------------------------------------------
 State  44                      Configuration         Coeff.   <S^2>
 -------------------------------------------------------------------
                  11111111111_ | _____1______      -0.276646  30.000
                  1111111111_1 | _1__________      -0.378656  30.000
                  1111111111_1 | _______1____      -0.396508  30.000
                  111111111_11 | _1__________      -0.347535  30.000
                  111111111_11 | _______1____      -0.296349  30.000
                  1111111_1111 | _________1__      -0.220727  30.000
                  111111_11111 | __1_________       0.207438  30.000
                  1_1111111111 | _________1__      -0.252427  30.000
 -------------------------------------------------------------------
 State  45                      Configuration         Coeff.   <S^2>
 -------------------------------------------------------------------
                  11111111111_ | __1_________      -0.460113  30.000
                  11111111111_ | ______1_____      -0.485978  30.000
                  111111_11111 | _____1______       0.233981  30.000
                  11111_111111 | __1_________      -0.382785  30.000
                  11111_111111 | ______1_____      -0.366599  30.000
                  11_111111111 | _____1______       0.259437  30.000
 -------------------------------------------------------------------
 State  46                      Configuration         Coeff.   <S^2>
 -------------------------------------------------------------------
                  11111111_111 | 1___________      -0.332833  30.000
                  11111111_111 | ____1_______       0.405426  30.000
                  1111_1111111 | 1___________      -0.411757  30.000
                  1111_1111111 | ________1___      -0.388936  30.000
                  _11111111111 | ____1_______       0.428524  30.000
                  _11111111111 | ________1___       0.319472  30.000
 -------------------------------------------------------------------
 State  47                      Configuration         Coeff.   <S^2>
 -------------------------------------------------------------------
                  1111111111_1 | _________1__       0.246673  30.000
                  111111111_11 | __________1_       0.364575  30.000
                  11111111_111 | 1___________      -0.222949  30.000
                  11111111_111 | ___1________      -0.256990  30.000
                  1111111_1111 | __________1_      -0.212149  30.000
                  111_11111111 | 1___________      -0.246233  30.000
                  _11111111111 | ___1________      -0.357942  30.000
                  _11111111111 | ________1___       0.289232  30.000
 -------------------------------------------------------------------
 State  48                      Configuration         Coeff.   <S^2>
[...]
   697     3270.85033267    31324.24425576        6.00000000      cm-1
   698     3275.33045072    31328.72437382       12.00000000      cm-1
   699     3278.44265914    31331.83658223       12.00000000      cm-1
   700     3285.72621396    31339.12013705        6.00000000      cm-1
   701     3292.02970060    31345.42362370       20.00000000      cm-1
   702     3292.03794378    31345.43186687       12.00000000      cm-1
   703     3292.60092961    31345.99485271        6.00000000      cm-1
   704     3295.57513100    31348.96905409        6.00000000      cm-1
   705     3298.58192408    31351.97584717        2.00000000      cm-1
   706     3301.21277702    31354.60670012       12.00000000      cm-1
   707     3304.68925938    31358.08318247        6.00000000      cm-1
   708     3308.78392751    31362.17785061       12.00000000      cm-1
   709     3310.28639544    31363.68031853        6.00000000      cm-1
   710     3311.63365257    31365.02757566        2.00000000      cm-1
   711     3313.66186561    31367.05578870       12.00000000      cm-1
   712     3318.52017829    31371.91410139        6.00000000      cm-1
   713     3324.59468741    31377.98861050       12.00000000      cm-1
   714     3327.13918745    31380.53311055       12.00000000      cm-1
   715     3328.59386018    31381.98778327       20.00000000      cm-1
   716     3336.64605358    31390.03997668       -0.00000000      cm-1
   717     3338.07090584    31391.46482894        6.00000000      cm-1
   718     3338.30173222    31391.69565532       12.00000000      cm-1
   719     3343.48966333    31396.88358643        2.00000000      cm-1
   720     3354.66766289    31408.06158599        6.00000000      cm-1
   721     3355.37880918    31408.77273227       20.00000000      cm-1
   722     3360.01316931    31413.40709241        2.00000000      cm-1
   723     3364.71124664    31418.10516973        2.00000000      cm-1
   724     3368.89378439    31422.28770749        0.00000000      cm-1
   725     3373.83981747    31427.23374056       12.00000000      cm-1
   726     3375.06612498    31428.46004807        0.00000000      cm-1
   727     3376.44844910    31429.84237220        6.00000000      cm-1
   728     3376.52371045    31429.91763354       20.00000000      cm-1
   729     3376.92883332    31430.32275641       12.00000000      cm-1
   730     3380.30269404    31433.69661713        6.00000000      cm-1
   731     3388.41799130    31441.81191439        2.00000000      cm-1
   732     3395.91665346    31449.31057656       12.00000000      cm-1
   733     3400.59383190    31453.98775499        6.00000000      cm-1
   734     3404.03697399    31457.43089709       20.00000000      cm-1
   735     3405.16297720    31458.55690029        6.00000000      cm-1
   736     3407.45105206    31460.84497515        6.00000000      cm-1
   737     3417.69509725    31471.08902035       12.00000000      cm-1
   738     3418.19285906    31471.58678215       20.00000000      cm-1
   739     3426.65463763    31480.04856073       20.00000000      cm-1
   740     3426.69943092    31480.09335402       12.00000000      cm-1
   741     3432.34208869    31485.73601179        6.00000000      cm-1
   742     3433.41136993    31486.80529302       12.00000000      cm-1
   743     3446.25192617    31499.64584926       20.00000000      cm-1
   744     3449.06692879    31502.46085189       20.00000000      cm-1
   745     3450.04509441    31503.43901751        6.00000000      cm-1
   746     3457.81785118    31511.21177428       12.00000000      cm-1
   747     3463.48142474    31516.87534783       20.00000000      cm-1
   748     3466.01006362    31519.40398672       12.00000000      cm-1
   749     3500.81179556    31554.20571866       20.00000000      cm-1
   750     3521.69291179    31575.08683488       20.00000000      cm-1
   751     3533.94229478    31587.33621787       20.00000000      cm-1
   752     3535.52968927    31588.92361236       12.00000000      cm-1
   753     3537.42622602    31590.82014912        6.00000000      cm-1
   754     3539.37494263    31592.76886572       20.00000000      cm-1
   755     3569.20573331    31622.59965640       20.00000000      cm-1
   756     3603.97625168    31657.37017477       20.00000000      cm-1
   757     3607.48753640    31660.88145950       20.00000000      cm-1
   758     8703.17441332    36756.56833642       -0.00000000      cm-1
   759     8764.87391525    36818.26783835        2.00000000      cm-1
   760     8810.46715978    36863.86108287       -0.00000000      cm-1
   761     8854.86012480    36908.25404790        2.00000000      cm-1
   762     8867.24407366    36920.63799675        0.00000000      cm-1
   763     8886.61211146    36940.00603456        6.00000000      cm-1
   764     8914.21440535    36967.60832844        2.00000000      cm-1
   765     8942.66718605    36996.06110915        6.00000000      cm-1
   766     8978.97302716    37032.36695026       -0.00000000      cm-1
   767     9007.21448116    37060.60840426        6.00000000      cm-1
   768     9041.41319411    37094.80711720        2.00000000      cm-1
   769     9063.88353161    37117.27745470       -0.00000000      cm-1
   770     9065.27096052    37118.66488361       12.00000000      cm-1
   771     9072.03655590    37125.43047900       12.00000000      cm-1
   772     9092.14868769    37145.54261078       -0.00000000      cm-1
   773     9108.79614926    37162.19007236        2.00000000      cm-1
   774     9138.90701274    37192.30093583        2.00000000      cm-1
   775     9144.44953690    37197.84345999       12.00000000      cm-1
   776     9164.63580525    37218.02972835        6.00000000      cm-1
   777     9197.74470785    37251.13863095        6.00000000      cm-1
   778     9231.43958014    37284.83350324        6.00000000      cm-1
   779     9240.40651943    37293.80044253       20.00000000      cm-1
   780     9296.64720459    37350.04112768       20.00000000      cm-1
   781     9323.42667310    37376.82059619       20.00000000      cm-1
   782     9329.05710688    37382.45102998       12.00000000      cm-1
   783     9345.53021587    37398.92413896       12.00000000      cm-1
   784     9367.87542251    37421.26934560       12.00000000      cm-1
   785     9500.41155267    37553.80547577       20.00000000      cm-1
   786     9545.62979150    37599.02371459       20.00000000      cm-1
   787     9579.88499118    37633.27891428       20.00000000      cm-1
   788    14667.94973050    42721.34365359        2.00000000      cm-1
   789    14752.58159544    42805.97551853        2.00000000      cm-1
   790    14762.26333233    42815.65725542        6.00000000      cm-1
   791    14779.81050458    42833.20442768        2.00000000      cm-1
   792    14790.86719952    42844.26112262       -0.00000000      cm-1
   793    14825.24980713    42878.64373022        2.00000000      cm-1
   794    14833.06957626    42886.46349936        0.00000000      cm-1
   795    14852.72776856    42906.12169166        6.00000000      cm-1
   796    14864.48202019    42917.87594329        6.00000000      cm-1
   797    14879.63675289    42933.03067599        2.00000000      cm-1
   798    14889.29254114    42942.68646424        2.00000000      cm-1
   799    14890.49930744    42943.89323054       -0.00000000      cm-1
   800    14891.73708135    42945.13100445       12.00000000      cm-1
   801    14916.39716886    42969.79109196        6.00000000      cm-1
   802    14917.92937792    42971.32330102        2.00000000      cm-1
   803    14919.95654925    42973.35047235       -0.00000000      cm-1
   804    14930.24537553    42983.63929863        2.00000000      cm-1
   805    14951.03530028    43004.42922338        2.00000000      cm-1
   806    14961.86318555    43015.25710865        2.00000000      cm-1
   807    14966.58163271    43019.97555580        6.00000000      cm-1
   808    14969.56556343    43022.95948652       12.00000000      cm-1
   809    14974.22917099    43027.62309408        2.00000000      cm-1
   810    14979.48140138    43032.87532447       -0.00000000      cm-1
   811    14994.27123764    43047.66516074        6.00000000      cm-1
   812    14995.92692735    43049.32085045        2.00000000      cm-1
   813    15004.64998988    43058.04391297        6.00000000      cm-1
   814    15021.15274693    43074.54667003        2.00000000      cm-1
   815    15025.59457674    43078.98849984       12.00000000      cm-1
   816    15028.99569612    43082.38961921        6.00000000      cm-1
   817    15036.74335451    43090.13727761        2.00000000      cm-1
   818    15047.08822093    43100.48214402       12.00000000      cm-1
   819    15052.37791392    43105.77183702        6.00000000      cm-1
   820    15059.65561985    43113.04954294        2.00000000      cm-1
   821    15074.21991733    43127.61384043       12.00000000      cm-1
   822    15080.96454522    43134.35846832        6.00000000      cm-1
   823    15091.65030898    43145.04423207        6.00000000      cm-1
   824    15106.31893049    43159.71285359        2.00000000      cm-1
   825    15108.62128600    43162.01520909        6.00000000      cm-1
   826    15117.17260471    43170.56652780        0.00000000      cm-1
   827    15127.11779792    43180.51172101        2.00000000      cm-1
   828    15132.31933517    43185.71325827        6.00000000      cm-1
   829    15137.02458548    43190.41850858        6.00000000      cm-1
   830    15139.23596877    43192.62989187       12.00000000      cm-1
   831    15145.46129574    43198.85521883        2.00000000      cm-1
   832    15155.71702107    43209.11094416       12.00000000      cm-1
   833    15166.91227399    43220.30619708       20.00000000      cm-1
   834    15168.39092067    43221.78484376       12.00000000      cm-1
   835    15173.49828821    43226.89221130        6.00000000      cm-1
   836    15180.61157671    43234.00549981        2.00000000      cm-1
   837    15194.14724710    43247.54117019        0.00000000      cm-1
   838    15212.11771127    43265.51163437       20.00000000      cm-1
   839    15214.83424926    43268.22817236        6.00000000      cm-1
   840    15217.87464178    43271.26856488       12.00000000      cm-1
   841    15218.94429719    43272.33822029        2.00000000      cm-1
   842    15237.31049702    43290.70442011        6.00000000      cm-1
   843    15247.48035231    43300.87427540       -0.00000000      cm-1
   844    15248.78795907    43302.18188216       12.00000000      cm-1
   845    15257.51584338    43310.90976647        6.00000000      cm-1
   846    15266.60059730    43319.99452039        6.00000000      cm-1
   847    15268.49745950    43321.89138260       12.00000000      cm-1
   848    15277.16087286    43330.55479595       12.00000000      cm-1
   849    15278.61487537    43332.00879847       20.00000000      cm-1
   850    15279.91899019    43333.31291328        2.00000000      cm-1
   851    15289.76113366    43343.15505676       -0.00000000      cm-1
   852    15294.16303746    43347.55696055       12.00000000      cm-1
   853    15306.81541237    43360.20933547        2.00000000      cm-1
   854    15311.54999358    43364.94391668       12.00000000      cm-1
   855    15320.57648738    43373.97041048        2.00000000      cm-1
   856    15335.21745736    43388.61138045        6.00000000      cm-1
   857    15336.80773594    43390.20165904       12.00000000      cm-1
   858    15344.18595125    43397.57987434        6.00000000      cm-1
   859    15368.03310910    43421.42703219       20.00000000      cm-1
   860    15368.81734358    43422.21126668        2.00000000      cm-1
   861    15378.58307965    43431.97700275       12.00000000      cm-1
   862    15385.13200528    43438.52592838       12.00000000      cm-1
   863    15385.72875897    43439.12268207       30.00000000      cm-1
   864    15388.24159000    43441.63551309        6.00000000      cm-1
   865    15397.54603495    43450.93995804        2.00000000      cm-1
   866    15413.75532602    43467.14924912       12.00000000      cm-1
   867    15432.20767577    43485.60159887       12.00000000      cm-1
   868    15434.92087752    43488.31480062       20.00000000      cm-1
   869    15444.03776253    43497.43168563       12.00000000      cm-1
   870    15444.39924960    43497.79317270        2.00000000      cm-1
   871    15449.79445196    43503.18837506        6.00000000      cm-1
   872    15461.09184235    43514.48576544       20.00000000      cm-1
   873    15481.45818051    43534.85210360        2.00000000      cm-1
   874    15493.76055489    43547.15447798        6.00000000      cm-1
   875    15506.20107576    43559.59499886       20.00000000      cm-1
   876    15509.89574527    43563.28966837       20.00000000      cm-1
   877    15511.89201549    43565.28593858       12.00000000      cm-1
   878    15519.26999928    43572.66392238        6.00000000      cm-1
   879    15521.73820130    43575.13212439       30.00000000      cm-1
   880    15525.97478885    43579.36871194        6.00000000      cm-1
   881    15533.60293396    43586.99685706       12.00000000      cm-1
   882    15541.69314401    43595.08706710       20.00000000      cm-1
   883    15554.46523637    43607.85915946        6.00000000      cm-1
   884    15562.52594845    43615.91987155       20.00000000      cm-1
   885    15577.02517182    43630.41909492       12.00000000      cm-1
   886    15587.17225227    43640.56617536       12.00000000      cm-1
   887    15587.44711493    43640.84103802       20.00000000      cm-1
   888    15606.41567737    43659.80960046       20.00000000      cm-1
   889    15621.15597797    43674.54990107       20.00000000      cm-1
   890    15654.97096874    43708.36489183       12.00000000      cm-1
   891    15658.86213350    43712.25605659       20.00000000      cm-1
   892    15672.39339672    43725.78731981       20.00000000      cm-1
   893    15679.59156166    43732.98548476       12.00000000      cm-1
   894    15692.17494107    43745.56886417       30.00000000      cm-1
   895    15700.95837782    43754.35230092       20.00000000      cm-1
   896    15754.75104099    43808.14496408       12.00000000      cm-1
   897    15773.38897271    43826.78289581       20.00000000      cm-1
   898    15778.42720781    43831.82113091       20.00000000      cm-1
   899    15803.72005644    43857.11397954       30.00000000      cm-1
   900    15858.30851078    43911.70243387       30.00000000      cm-1
   901    15860.91024360    43914.30416669       30.00000000      cm-1
   902    15903.09314610    43956.48706919       30.00000000      cm-1
   903    15926.93300380    43980.32692690       30.00000000      cm-1
   904    15940.11792817    43993.51185127       30.00000000      cm-1
   905    27226.26052192    55279.65444501       -0.00000000      cm-1
   906    27234.78372539    55288.17764848        2.00000000      cm-1
   907    27270.51521657    55323.90913967        2.00000000      cm-1
   908    27302.25572955    55355.64965264        6.00000000      cm-1
   909    27319.25817931    55372.65210241        2.00000000      cm-1
   910    27320.81711996    55374.21104305        6.00000000      cm-1
   911    27358.90446750    55412.29839059        6.00000000      cm-1
   912    27409.46548260    55462.85940570        6.00000000      cm-1
   913    27453.81787649    55507.21179959       12.00000000      cm-1
   914    27465.96788953    55519.36181262        6.00000000      cm-1
   915    27490.99740207    55544.39132517       12.00000000      cm-1
   916    27543.52040386    55596.91432696       12.00000000      cm-1
   917    27603.26184103    55656.65576413       12.00000000      cm-1
   918    27666.38049658    55719.77441967       20.00000000      cm-1
   919    27719.98370274    55773.37762584       20.00000000      cm-1
   920    27783.27077365    55836.66469674       20.00000000      cm-1
   921    27937.10990973    55990.50383283       30.00000000      cm-1
   922    28003.68433105    56057.07825415       30.00000000      cm-1
   923    28261.93129015    56315.32521324       42.00000000      cm-1
 Analysis of SCF Wavefunction

 --------------------------------------------------------------

                    Orbital Energies (a.u.)
 --------------------------------------------------------------

 Alpha MOs
 -- Occupied --
 -0.914  -0.914  -0.516  -0.516  -0.515  -0.516  -0.517  -0.515
 -0.516  -0.516  -0.518  -0.516  -0.516  -0.515
 -- Virtual --
  1.004   0.813   0.998   0.995   1.059   1.070   1.030   1.000
  1.018   1.063   1.179   1.207   0.986   0.992

 Beta MOs
 -- Occupied --
 -0.914  -0.914
 -- Virtual --
  0.148   0.147   0.148   0.147   0.149   0.148   0.148   0.147
  0.148   0.149   0.147   0.149   1.166   0.996   1.152   1.157
  1.227   1.242   1.167   1.159   1.161   1.186   1.258   1.276
  1.148   1.162
 --------------------------------------------------------------

          Ground-State Mulliken Net Atomic Charges

     Atom                 Charge (a.u.)
  ----------------------------------------
      1 H                     0.000071
      2 H                     0.000027
      3 H                    -0.000017
      4 H                     0.000002
      5 H                    -0.000030
      6 H                     0.000023
      7 H                     0.000026
      8 H                    -0.000029
      9 H                     0.000070
     10 H                     0.000011
     11 H                    -0.000078
     12 H                    -0.000077
     13 He                    0.000000
     14 He                    0.000000
  ----------------------------------------
  Sum of atomic charges =    -0.000000

 -----------------------------------------------------------------
                    Cartesian Multipole Moments
 -----------------------------------------------------------------
    Charge (ESU x 10^10)
                -0.0000
    Dipole Moment (Debye)
         X      -0.0002      Y      -0.0005      Z       0.0003
       Tot       0.0006
    Quadrupole Moments (Debye-Ang)
        XX     -19.6393     XY       0.0164     YY     -19.5732
        XZ      -0.0005     YZ      -0.0162     ZZ     -19.5115
    Octopole Moments (Debye-Ang^2)
       XXX     -19.5250    XXY     -33.9516    XYY      -4.8492
       YYY    -104.7880    XXZ     -22.9055    XYZ      -0.0136
       YYZ     -23.8395    XZZ      -4.1103    YZZ     -33.9092
       ZZZ     -70.7097
    Hexadecapole Moments (Debye-Ang^3)
      XXXX   -1642.7934   XXXY     -10.9122   XXYY    -562.8052
      XYYY      -9.4689   YYYY   -1720.3268   XXXZ       3.4276
      XXYZ    -214.1780   XYYZ       0.0787   YYYZ    -651.2899
      XXZZ    -491.0259   XYZZ      -3.0245   YYZZ    -512.5718
      XZZZ       4.4623   YZZZ    -646.3690   ZZZZ   -1318.2273
 -----------------------------------------------------------------
 JobOver = TRUE
Archival summary:
1\1\sinatra\SP\ROProcedureUnspecified\6-31G*\e212()\nmayhall\MonMar2016:11:012017MonMar2016:11:012017\0\\#,ROProcedureUnspecified,6-31G*,\\0,13\H\H,1,1.81065\H,1,1.81086,2,60.0452\H,2,1.81131,1,60.0237,3,-70.5123,0\H,1,2.88444,2,133.305,3,-32.1425,0\H,5,1.81039,1,166.391,2,-112.316,0\H,5,1.81121,1,119.659,2,162.899,0\H,7,1.8112,5,60.0005,1,93.7355,0\H,8,2.837,7,73.0863,5,-92.9521,0\H,9,1.8108,8,152.386,7,-68.5028,0\H,10,1.8111,9,60.0291,8,178.05,0\H,11,1.81133,10,60.0389,9,70.5227,0\He,2,14.4666,1,124.758,3,67.5959,0\He,2,14.6977,1,124.886,3,-179.104,0\\HF=-11.4703787\\@

 Total job time:  0.51s(wall), 0.50s(cpu) 
 Mon Mar 20 16:11:01 2017

        *************************************************************
        *                                                           *
        *  Thank you very much for using Q-Chem.  Have a nice day.  *
        *                                                           *
        *************************************************************


*** MISSION COMPLETED -- STARFLEET OUT ***

