Jobname.Temp
SP        RO                            6-31G(d)            
Number of atoms                            I               14
Charge                                     I                0
Multiplicity                               I               13
Number of electrons                        I               16
Number of alpha electrons                  I               14
Number of beta electrons                   I                2
Atomic numbers                             I   N=          14
           1           1           1           1           1           1
           1           1           1           1           1           1
           2           2
Current cartesian coordinates              R   N=          42
 -1.39563833E+00 -1.02168043E+00  1.62062912E-01 -4.37169242E+00 -1.92275854E+00
 -1.26643776E+00 -3.96052581E+00  1.23869658E+00 -2.16562614E-02 -4.17712622E+00
 -1.42555270E+00  2.11639877E+00  2.79063416E+00  6.75015841E+00  1.85722284E-01
  3.18418852E-01  7.86167642E+00  2.27798925E+00  3.45574216E-01  4.60110517E+00
  1.24094535E+00 -4.09806007E-01  7.09645072E+00 -9.77800989E-01  6.59230959E+00
 -1.65451191E+00 -1.14970937E-01  4.33973715E+00  9.17991157E-01 -3.60937690E-03
  3.66531279E+00 -2.01588424E+00  1.62501329E+00  3.62048849E+00 -1.90796198E+00
 -1.79565556E+00  1.88972612E+01  1.88972612E+01  1.88972612E+01 -1.88972612E+01
  1.88972612E+01  1.88972612E+01
Nuclear charges                            R   N=          14
  1.00000000E+00  1.00000000E+00  1.00000000E+00  1.00000000E+00  1.00000000E+00
  1.00000000E+00  1.00000000E+00  1.00000000E+00  1.00000000E+00  1.00000000E+00
  1.00000000E+00  1.00000000E+00  2.00000000E+00  2.00000000E+00
Number of basis functions                  I               28
Number of contracted shells                I               28
Number of primitive shells                 I               56
Highest angular momentum                   I                0
Largest degree of contraction              I                3
Shell types                                I   N=          28
           0           0           0           0           0           0
           0           0           0           0           0           0
           0           0           0           0           0           0
           0           0           0           0           0           0
           0           0           0           0
Number of primitives per shell             I   N=          28
           3           1           3           1           3           1
           3           1           3           1           3           1
           3           1           3           1           3           1
           3           1           3           1           3           1
           3           1           3           1
Shell to atom map                          I   N=          28
           1           1           2           2           3           3
           4           4           5           5           6           6
           7           7           8           8           9           9
          10          10          11          11          12          12
          13          13          14          14
Primitive exponents                        R   N=          56
  1.87311370E+01  2.82539370E+00  6.40121700E-01  1.61277800E-01  1.87311370E+01
  2.82539370E+00  6.40121700E-01  1.61277800E-01  1.87311370E+01  2.82539370E+00
  6.40121700E-01  1.61277800E-01  1.87311370E+01  2.82539370E+00  6.40121700E-01
  1.61277800E-01  1.87311370E+01  2.82539370E+00  6.40121700E-01  1.61277800E-01
  1.87311370E+01  2.82539370E+00  6.40121700E-01  1.61277800E-01  1.87311370E+01
  2.82539370E+00  6.40121700E-01  1.61277800E-01  1.87311370E+01  2.82539370E+00
  6.40121700E-01  1.61277800E-01  1.87311370E+01  2.82539370E+00  6.40121700E-01
  1.61277800E-01  1.87311370E+01  2.82539370E+00  6.40121700E-01  1.61277800E-01
  1.87311370E+01  2.82539370E+00  6.40121700E-01  1.61277800E-01  1.87311370E+01
  2.82539370E+00  6.40121700E-01  1.61277800E-01  3.84216340E+01  5.77803000E+00
  1.24177400E+00  2.97964000E-01  3.84216340E+01  5.77803000E+00  1.24177400E+00
  2.97964000E-01
Contraction coefficients                   R   N=          56
  3.34945995E-02  2.34726947E-01  8.13757318E-01  1.00000000E+00  3.34945995E-02
  2.34726947E-01  8.13757318E-01  1.00000000E+00  3.34945995E-02  2.34726947E-01
  8.13757318E-01  1.00000000E+00  3.34945995E-02  2.34726947E-01  8.13757318E-01
  1.00000000E+00  3.34945995E-02  2.34726947E-01  8.13757318E-01  1.00000000E+00
  3.34945995E-02  2.34726947E-01  8.13757318E-01  1.00000000E+00  3.34945995E-02
  2.34726947E-01  8.13757318E-01  1.00000000E+00  3.34945995E-02  2.34726947E-01
  8.13757318E-01  1.00000000E+00  3.34945995E-02  2.34726947E-01  8.13757318E-01
  1.00000000E+00  3.34945995E-02  2.34726947E-01  8.13757318E-01  1.00000000E+00
  3.34945995E-02  2.34726947E-01  8.13757318E-01  1.00000000E+00  3.34945995E-02
  2.34726947E-01  8.13757318E-01  1.00000000E+00  4.01397393E-02  2.61246097E-01
  7.93184625E-01  1.00000000E+00  4.01397393E-02  2.61246097E-01  7.93184625E-01
  1.00000000E+00
Coordinates of each shell                  R   N=          84
 -1.39563833E+00 -1.02168043E+00  1.62062912E-01 -1.39563833E+00 -1.02168043E+00
  1.62062912E-01 -4.37169242E+00 -1.92275854E+00 -1.26643776E+00 -4.37169242E+00
 -1.92275854E+00 -1.26643776E+00 -3.96052581E+00  1.23869658E+00 -2.16562614E-02
 -3.96052581E+00  1.23869658E+00 -2.16562614E-02 -4.17712622E+00 -1.42555270E+00
  2.11639877E+00 -4.17712622E+00 -1.42555270E+00  2.11639877E+00  2.79063416E+00
  6.75015841E+00  1.85722284E-01  2.79063416E+00  6.75015841E+00  1.85722284E-01
  3.18418852E-01  7.86167642E+00  2.27798925E+00  3.18418852E-01  7.86167642E+00
  2.27798925E+00  3.45574216E-01  4.60110517E+00  1.24094535E+00  3.45574216E-01
  4.60110517E+00  1.24094535E+00 -4.09806007E-01  7.09645072E+00 -9.77800989E-01
 -4.09806007E-01  7.09645072E+00 -9.77800989E-01  6.59230959E+00 -1.65451191E+00
 -1.14970937E-01  6.59230959E+00 -1.65451191E+00 -1.14970937E-01  4.33973715E+00
  9.17991157E-01 -3.60937690E-03  4.33973715E+00  9.17991157E-01 -3.60937690E-03
  3.66531279E+00 -2.01588424E+00  1.62501329E+00  3.66531279E+00 -2.01588424E+00
  1.62501329E+00  3.62048849E+00 -1.90796198E+00 -1.79565556E+00  3.62048849E+00
 -1.90796198E+00 -1.79565556E+00  1.88972612E+01  1.88972612E+01  1.88972612E+01
  1.88972612E+01  1.88972612E+01  1.88972612E+01 -1.88972612E+01  1.88972612E+01
  1.88972612E+01 -1.88972612E+01  1.88972612E+01  1.88972612E+01
SCF Energy                                 R     -1.147077777575642E+01
Number of independent functions            I               28
Alpha MO coefficients                      R   N=         784
  1.63990959E-21 -7.56212510E-22  1.69429066E-21 -1.33029427E-21 -1.06581475E-21
  1.53678713E-21  1.37036543E-21 -2.40608624E-21 -1.57101596E-21  2.83472679E-21
 -1.17216576E-21  1.09390638E-21  1.39016577E-21 -2.39749044E-21  2.36074740E-21
 -2.92453939E-21 -1.42850104E-21  3.36906760E-21  4.56313135E-22 -6.38230711E-22
  3.23709529E-21 -4.62524339E-21  9.94981490E-22 -2.83790542E-22 -5.92081261E-01
 -5.13586011E-01  6.85728357E-22 -7.07922819E-22 -1.37095904E-16  4.52697300E-17
 -1.41490134E-16  5.97123459E-17 -1.04969079E-16 -1.01163973E-16  2.77826269E-17
 -1.09689675E-16 -1.39810173E-17  1.14041765E-17 -1.42007541E-16 -2.23869081E-16
 -1.03369315E-16 -2.74983492E-16 -1.36785272E-16 -3.00410031E-17 -3.96549962E-17
 -1.61885743E-16  4.42414822E-18 -6.29919318E-18  5.56500782E-18 -1.49096024E-16
 -7.82384589E-17  1.28728673E-16  5.15566462E-17 -5.32219985E-17 -5.92081261E-01
 -5.13586011E-01  7.44510436E-03  4.17499892E-03 -7.75713670E-04 -5.09715812E-04
 -9.24039065E-04 -3.98577375E-04 -7.53103095E-04 -4.95763077E-04  1.52023615E-03
  4.43387828E-04 -7.78741828E-04 -7.80084578E-05  3.24236652E-03  1.25389481E-03
 -4.36259737E-04 -2.82254998E-04  4.43819556E-01  7.24064839E-01 -1.65915592E-02
 -9.00979932E-02 -1.67756968E-02 -8.97432736E-02 -1.66686523E-02 -8.98470204E-02
  1.20909972E-17  1.04880318E-17  5.51575115E-17  2.77015650E-17  1.97340463E-03
  3.33871584E-04 -7.32997106E-04 -1.17334115E-04  2.29413701E-03  1.50987513E-03
 -3.24851727E-04 -2.87146824E-04 -1.62443056E-02 -8.97190474E-02  4.43603327E-01
  7.24269366E-01 -1.66706765E-02 -9.00659851E-02 -1.60288577E-02 -9.00779634E-02
 -8.01573575E-04 -3.33831748E-05  4.55931216E-03  1.96413720E-03 -1.19155877E-04
 -2.90143642E-04 -3.74092007E-04 -2.64187783E-04  2.68489412E-17  2.32894393E-17
  2.02926710E-16  1.58612452E-16 -1.66557795E-02 -9.02636183E-02  4.43612191E-01
  7.24291380E-01 -1.63934371E-02 -8.99561200E-02 -1.59979720E-02 -8.97882729E-02
 -8.60388025E-04  2.12676423E-05 -6.72612514E-04 -1.16306801E-04  4.87161701E-03
  1.84932720E-03  5.52043754E-04 -4.38430258E-04 -9.24293096E-04 -6.10141829E-04
  1.14857421E-03 -8.69548972E-05  2.51574830E-03  1.87453300E-03  5.13937784E-04
  2.05009596E-03  2.08183015E-18  1.80583128E-18 -2.48517765E-17 -4.29561083E-17
 -1.59618157E-02 -9.01769235E-02 -1.61795883E-02 -8.99100576E-02  4.44072436E-01
  7.24596958E-01 -1.60330998E-02 -9.00529202E-02  2.11306585E-03  2.02439345E-03
  9.29700055E-04  2.59688419E-03 -8.78043156E-03 -1.54476784E-02 -3.77713617E-03
  1.36727771E-03 -1.02286466E-03 -5.77366142E-04  4.13033693E-04  4.88389178E-04
  2.40411556E-03  1.83601072E-03  1.76981324E-03  1.63883624E-03 -1.30841062E-17
 -1.13494791E-17  9.59975139E-17  6.04718306E-17  8.05610497E-03  1.70907970E-02
  4.49572368E-04 -3.04117229E-03 -7.64424347E-04 -2.51977753E-03 -1.67392739E-03
 -2.11011275E-03 -1.43976314E-03 -4.77023051E-04  4.69048654E-04  2.94438287E-04
 -1.58062574E-03 -1.71033397E-03  4.38396315E-04  2.71863091E-04  1.62580320E-02
  8.97367180E-02  1.59667057E-02  9.01288050E-02  1.53218784E-02  8.98895228E-02
 -4.43866309E-01 -7.24843096E-01  2.54704304E-17  2.20936848E-17  1.50199804E-16
  1.51991616E-16  2.80499068E-03  4.01694397E-03 -6.57651359E-04 -4.22228271E-04
  9.83190799E-05 -1.18107347E-03 -6.16334373E-04 -4.46793860E-04  7.77879786E-03
  5.23601528E-03 -2.75784921E-03 -3.15921848E-03  9.77807128E-03  1.54674810E-02
 -1.35633751E-03 -3.53224800E-03  1.61975978E-02  9.01076338E-02 -4.44382691E-01
 -7.24677718E-01  1.57950672E-02  9.00707457E-02  1.59484760E-02  8.99279751E-02
  2.33312455E-17  2.02381025E-17  5.44688521E-17  7.00580013E-17  1.64971013E-02
  9.02111900E-02  1.59918067E-02  8.97657572E-02  1.62356062E-02  9.00429002E-02
 -4.43493812E-01 -7.24354751E-01  4.49818730E-04  1.72034830E-04  4.17326973E-04
  1.77202209E-04 -2.08603047E-03 -2.29662765E-03 -9.79525886E-04  6.26158818E-04
  9.07720625E-04  5.83586007E-04 -1.10792841E-03  1.30780604E-04 -3.66737629E-04
 -2.53700486E-03 -2.63803849E-03 -1.32920968E-03 -1.31557281E-17 -1.14116057E-17
 -8.71349497E-17 -5.40139569E-17 -1.04446974E-03 -1.03026213E-03 -7.79515445E-05
  1.95197665E-04  2.82857215E-03 -4.10478841E-04 -6.54257827E-04  5.15892544E-04
  1.62895587E-02  8.98774453E-02  1.60006756E-02  9.00674340E-02  1.62614438E-02
  9.00472212E-02 -4.43529430E-01 -7.24334784E-01  5.57931296E-04  1.61032973E-04
 -3.08110278E-03 -2.27722873E-03 -1.41212386E-04  4.79971646E-04  4.29891167E-04
  2.11747470E-04  2.73327813E-17  2.37091343E-17 -1.33147704E-16 -9.77042048E-17
  8.75062667E-03  2.01975251E-02 -1.48499632E-03 -2.75095932E-03 -1.34563716E-03
 -2.68075790E-03  6.43617886E-04 -3.54688744E-03 -1.72621045E-03 -4.27924179E-04
  3.09693191E-04  2.65753903E-04  3.19992295E-04 -1.73767963E-03 -3.67815445E-05
  4.88539240E-04  1.63252224E-02  8.95535596E-02  1.57776939E-02  9.02655348E-02
 -4.43991485E-01 -7.24985182E-01  1.52956915E-02  8.99281654E-02  8.84429003E-18
  7.67175708E-18 -1.31128906E-16 -9.18386737E-17 -1.36723588E-03 -6.48042311E-04
  8.76758554E-04  1.67868245E-05 -3.51915277E-03 -1.07815675E-03  3.09821950E-04
  3.08811704E-04 -4.43794880E-01 -7.24219351E-01  1.61567687E-02  8.97101015E-02
  1.58550583E-02  9.01928631E-02  1.62096836E-02  8.98591949E-02 -7.29314350E-04
 -1.01359883E-03  6.76486034E-03  6.69376775E-03 -1.14606080E-03 -7.97397311E-04
 -7.66270658E-04 -9.30458198E-04 -1.66114598E-17 -1.44091933E-17 -8.54925700E-17
 -5.61309503E-17  7.56026904E-03  6.35646914E-03 -3.01279350E-03 -3.11424530E-03
  9.17899704E-03  1.46038542E-02 -3.61951575E-04 -3.72821897E-03  1.55681380E-02
  9.02513810E-02  1.62472859E-02  8.99666426E-02 -4.44971202E-01 -7.24831604E-01
  1.58915892E-02  9.00060361E-02 -2.01302181E-03 -2.06328174E-03  9.15225822E-03
  1.65610807E-02  1.34331350E-03 -2.58264749E-03 -4.54416296E-04 -2.56756758E-03
  1.08351412E-17  9.39867084E-18 -1.68184361E-16 -1.25082293E-16 -4.45198250E-01
 -7.25066955E-01  1.61473335E-02  9.00876978E-02  1.56480191E-02  8.98857819E-02
  1.59902934E-02  9.00797390E-02 -5.45052864E-04 -1.27655296E-03 -1.18363927E-03
 -8.53762668E-04  6.48836241E-03  7.84522589E-03 -6.72554251E-04 -1.29466728E-03
 -4.86106566E-03 -6.07187153E-03  4.69237825E-03  1.45352345E-03  9.84386798E-03
  1.71652775E-02  9.26081046E-03  1.41904849E-02  3.12028276E-17  2.70661086E-17
 -5.68308550E-17 -2.39249491E-17  6.03603411E-01 -6.13400558E-01 -2.89172860E-01
  3.64028120E-01  1.94217066E-01 -1.60614293E-01 -1.84284628E-01  2.45788782E-01
  4.93431091E-02 -1.11131196E-02 -2.65325642E-01  3.35944490E-01  6.58842195E-01
 -6.74319922E-01 -1.37344923E-01  1.91800645E-01 -4.13059649E-01  5.12551292E-01
  4.98633410E-01 -4.83443640E-01  2.10615469E-01 -1.62717869E-01  1.27696089E-01
 -7.31467224E-02  5.88061913E-17 -6.06739844E-17  6.49120492E-16 -5.16435402E-16
 -5.38678837E-01  5.90271023E-01 -1.30270830E-02  1.19588436E-02  4.44231059E-01
 -5.07354251E-01  6.57177695E-02 -7.88504442E-02  2.87765401E-01 -2.92829875E-01
 -2.99495125E-01  3.75960356E-01  2.94898870E-01 -2.86664583E-01 -3.66933549E-02
  7.39812588E-02  3.01804945E-01 -3.68504004E-01  4.87187725E-01 -5.77757356E-01
 -4.73906697E-01  5.00961262E-01 -5.01357850E-01  5.35811966E-01 -1.24196621E-15
  1.34255045E-15 -3.26674548E-16  2.69148171E-16  7.97021307E-02 -1.17327060E-01
  2.68374804E-01 -3.32244929E-01 -6.70426423E-01  7.46789188E-01  1.63480340E-01
 -2.10540845E-01  7.30377327E-01 -8.44278128E-01 -3.39600091E-02  3.56703079E-02
 -2.84161789E-01  3.20336989E-01 -4.38137838E-01  5.03182838E-01 -2.04250088E-01
  2.52432679E-01  4.12815456E-01 -4.59579377E-01 -6.67855242E-02  9.75800676E-02
 -2.19196512E-02  4.50759602E-02  5.15903257E-16 -4.99517762E-16 -5.15355446E-17
  1.58818897E-16  3.05370181E-02 -3.85476000E-02  5.26948156E-01 -6.21616181E-01
  1.14791768E-01 -1.37989055E-01 -6.76205743E-01  7.98175250E-01  9.21648058E-02
 -1.02731138E-01 -2.29143400E-01  2.75584911E-01 -9.00533408E-02  1.17358526E-01
  2.69376430E-01 -3.12493141E-01 -8.23545687E-02  9.93449124E-02  4.82023859E-02
 -5.63842942E-02 -5.70961350E-01  6.77276453E-01  6.20622377E-01 -7.28905167E-01
  8.15877137E-16 -7.74394339E-16  1.10617045E-15 -5.95066772E-16  4.28064262E-02
 -4.95986849E-02 -1.33129497E-01  1.56944196E-01 -1.04503203E-01  1.15186872E-01
  1.81130391E-01 -2.16562642E-01  2.51156948E-01 -3.03338738E-01 -7.94858841E-01
  9.40410855E-01 -2.95690267E-01  3.43130276E-01  8.05422672E-01 -9.61877607E-01
 -1.20544066E-01  1.43890422E-01 -4.36109783E-02  4.70461817E-02  2.99379673E-01
 -3.53056905E-01 -1.32160298E-01  1.59557255E-01  4.53220730E-16 -4.44869449E-16
  8.07300679E-17 -1.12410427E-16 -8.64429095E-03  6.36206577E-03 -6.27814269E-01
  7.48170140E-01 -2.61652639E-02  2.93263910E-02  6.52270964E-01 -7.79282642E-01
  2.56685878E-02 -3.11526625E-02 -3.01572563E-02  3.56243221E-02 -2.72461121E-02
  3.06396258E-02  2.75667068E-02 -3.33660218E-02 -3.29912907E-02  3.90185576E-02
 -1.01145865E-02  1.10389553E-02 -6.12202743E-01  7.29740314E-01  6.51331758E-01
 -7.77857253E-01  1.44146754E-15 -1.52602896E-15  1.13309804E-15 -1.10213449E-15
  1.79823703E-01 -2.83979514E-01 -4.75429033E-01  5.15867306E-01  2.84305705E-01
 -4.17196524E-01 -4.17443993E-01  4.45098852E-01  6.13756253E-01 -7.75663062E-01
 -1.79394071E-01  1.98448544E-01 -1.94440945E-01  2.16183255E-01 -3.79271400E-01
  4.43067160E-01  5.78870474E-01 -6.31364404E-01 -4.06988204E-01  5.78411424E-01
  1.92847592E-01 -1.49532452E-01  1.53456861E-01 -1.02901283E-01  3.60008325E-16
 -3.19814011E-16  5.90031304E-16 -5.28088029E-16 -3.92848210E-01  4.56970052E-01
 -2.28210095E-01  2.47686752E-01  5.45888324E-01 -7.11359942E-01 -1.34220772E-01
  1.32989602E-01  3.65251419E-01 -3.79048946E-01  3.83255819E-01 -4.02197431E-01
 -3.42804635E-01  4.99518696E-01  4.59111720E-02  1.14219772E-02 -8.59200426E-01
  9.34590663E-01 -4.86675776E-02 -7.04050439E-02  1.20955841E-01 -2.80020961E-01
 -1.29635249E-02 -1.14134639E-01 -8.76143281E-16  9.36859687E-16 -2.72170231E-16
  2.26758481E-16 -3.10338190E-01  5.12369586E-01  4.58808037E-01 -4.61123234E-01
  1.97075753E-01 -1.24598642E-01  3.75207725E-01 -3.57813914E-01 -2.56915251E-02
 -1.06090834E-01 -6.01579227E-01  6.12377853E-01  3.00434811E-01 -5.22189020E-01
 -5.47085877E-01  5.45460597E-01 -2.84210123E-01  2.93243206E-01 -5.42557446E-01
  6.21956754E-01  1.92201586E-01 -3.13903370E-01  2.36885119E-01 -3.66602758E-01
  9.72754401E-16 -1.00530945E-15  4.76376972E-16 -5.31326751E-16  2.44106994E-01
 -1.65438522E-02  5.27506903E-01 -3.93209987E-01  4.66994550E-01 -3.15457206E-01
  5.25630569E-01 -3.90736314E-01  4.80554981E-01 -3.71551931E-01  4.52509630E-01
 -3.36016566E-01  2.03453253E-01 -1.15166328E-02  3.79106932E-01 -2.42361044E-01
  3.42244974E-01 -2.60424713E-01  1.22555217E-01  2.38943949E-02  3.21797738E-01
 -2.33391446E-01  3.20215020E-01 -2.31601540E-01 -2.41629989E-15  2.59940903E-15
  1.98362819E-15 -2.14331536E-15 -1.80335358E-02  1.28035540E-01  6.96810826E-02
  1.36595959E-03  3.98854493E-01 -4.47493852E-01  1.12947583E-01 -5.51109050E-02
 -4.86818565E-01  3.39427118E-01 -2.60409074E-01  3.53110362E-02 -7.47409596E-01
  7.00329220E-01 -3.49688505E-01  1.52793818E-01  1.96293632E-01 -3.57482739E-03
  6.84368824E-01 -6.66935459E-01  3.43458272E-01 -2.00477125E-01  3.03232305E-01
 -1.47158115E-01  3.12789064E-15 -3.24628948E-15  3.77464046E-15 -3.92846398E-15
 -8.32656381E-01  8.45523833E-01 -2.24257050E-01  4.43908292E-03 -4.18185134E-01
  2.69927007E-01 -2.53718922E-01  4.32316065E-02  4.98483049E-02  4.80180703E-02
  8.52591992E-02  1.79819035E-04  3.90198581E-01 -4.15793790E-01  1.48280149E-01
 -8.28504507E-02  1.80367903E-01  2.79114311E-02  2.82538760E-01 -1.05186401E-01
  5.53957391E-01 -4.93096929E-01  5.56253648E-01 -4.92133073E-01  5.49499679E-16
 -4.95559448E-16  2.53092917E-15 -2.64010784E-15 -3.66788887E-16 -7.43448588E-17
 -1.34993348E-15  1.06291353E-15 -2.06156630E-15  1.90639840E-15 -2.59677382E-16
 -1.40457190E-16 -2.76156735E-15  1.73260387E-15 -3.14096635E-15  2.34178625E-15
 -2.82981689E-15  1.72703345E-15 -2.43936415E-15  1.38476772E-15 -4.52889151E-16
  1.03329855E-15  2.37100299E-16 -2.23457284E-16 -1.19190188E-16  5.09017644E-16
  2.77946704E-15 -2.90522548E-15 -1.14981805E+00  1.18695880E+00  9.20592783E-11
 -9.50329247E-11 -9.20316753E-16  1.93525978E-15  3.00265145E-16 -1.84427617E-16
  1.73298486E-15 -1.97551195E-15  9.72982317E-16 -8.19439107E-16 -4.27098203E-16
  1.91086098E-16 -7.76293780E-16  5.47080563E-16 -1.03278086E-15  1.05035658E-15
 -3.20709530E-16 -1.79478836E-17  1.88191122E-15 -3.28752023E-16  3.18305040E-15
 -2.10830796E-15  2.59320958E-15 -1.39352337E-15  5.23019501E-15 -4.56263793E-15
 -9.20596621E-11  9.50333459E-11 -1.14981805E+00  1.18695880E+00
Beta MO coefficients                       R   N=         784
  1.63990959E-21 -7.56212510E-22  1.69429066E-21 -1.33029427E-21 -1.06581475E-21
  1.53678713E-21  1.37036543E-21 -2.40608624E-21 -1.57101596E-21  2.83472679E-21
 -1.17216576E-21  1.09390638E-21  1.39016577E-21 -2.39749044E-21  2.36074740E-21
 -2.92453939E-21 -1.42850104E-21  3.36906760E-21  4.56313135E-22 -6.38230711E-22
  3.23709529E-21 -4.62524339E-21  9.94981490E-22 -2.83790542E-22 -5.92081261E-01
 -5.13586011E-01  6.85728357E-22 -7.07922819E-22 -1.37095904E-16  4.52697300E-17
 -1.41490134E-16  5.97123459E-17 -1.04969079E-16 -1.01163973E-16  2.77826269E-17
 -1.09689675E-16 -1.39810173E-17  1.14041765E-17 -1.42007541E-16 -2.23869081E-16
 -1.03369315E-16 -2.74983492E-16 -1.36785272E-16 -3.00410031E-17 -3.96549962E-17
 -1.61885743E-16  4.42414822E-18 -6.29919318E-18  5.56500782E-18 -1.49096024E-16
 -7.82384589E-17  1.28728673E-16  5.15566462E-17 -5.32219985E-17 -5.92081261E-01
 -5.13586011E-01  7.44510436E-03  4.17499892E-03 -7.75713670E-04 -5.09715812E-04
 -9.24039065E-04 -3.98577375E-04 -7.53103095E-04 -4.95763077E-04  1.52023615E-03
  4.43387828E-04 -7.78741828E-04 -7.80084578E-05  3.24236652E-03  1.25389481E-03
 -4.36259737E-04 -2.82254998E-04  4.43819556E-01  7.24064839E-01 -1.65915592E-02
 -9.00979932E-02 -1.67756968E-02 -8.97432736E-02 -1.66686523E-02 -8.98470204E-02
  1.20909972E-17  1.04880318E-17  5.51575115E-17  2.77015650E-17  1.97340463E-03
  3.33871584E-04 -7.32997106E-04 -1.17334115E-04  2.29413701E-03  1.50987513E-03
 -3.24851727E-04 -2.87146824E-04 -1.62443056E-02 -8.97190474E-02  4.43603327E-01
  7.24269366E-01 -1.66706765E-02 -9.00659851E-02 -1.60288577E-02 -9.00779634E-02
 -8.01573575E-04 -3.33831748E-05  4.55931216E-03  1.96413720E-03 -1.19155877E-04
 -2.90143642E-04 -3.74092007E-04 -2.64187783E-04  2.68489412E-17  2.32894393E-17
  2.02926710E-16  1.58612452E-16 -1.66557795E-02 -9.02636183E-02  4.43612191E-01
  7.24291380E-01 -1.63934371E-02 -8.99561200E-02 -1.59979720E-02 -8.97882729E-02
 -8.60388025E-04  2.12676423E-05 -6.72612514E-04 -1.16306801E-04  4.87161701E-03
  1.84932720E-03  5.52043754E-04 -4.38430258E-04 -9.24293096E-04 -6.10141829E-04
  1.14857421E-03 -8.69548972E-05  2.51574830E-03  1.87453300E-03  5.13937784E-04
  2.05009596E-03  2.08183015E-18  1.80583128E-18 -2.48517765E-17 -4.29561083E-17
 -1.59618157E-02 -9.01769235E-02 -1.61795883E-02 -8.99100576E-02  4.44072436E-01
  7.24596958E-01 -1.60330998E-02 -9.00529202E-02  2.11306585E-03  2.02439345E-03
  9.29700055E-04  2.59688419E-03 -8.78043156E-03 -1.54476784E-02 -3.77713617E-03
  1.36727771E-03 -1.02286466E-03 -5.77366142E-04  4.13033693E-04  4.88389178E-04
  2.40411556E-03  1.83601072E-03  1.76981324E-03  1.63883624E-03 -1.30841062E-17
 -1.13494791E-17  9.59975139E-17  6.04718306E-17  8.05610497E-03  1.70907970E-02
  4.49572368E-04 -3.04117229E-03 -7.64424347E-04 -2.51977753E-03 -1.67392739E-03
 -2.11011275E-03 -1.43976314E-03 -4.77023051E-04  4.69048654E-04  2.94438287E-04
 -1.58062574E-03 -1.71033397E-03  4.38396315E-04  2.71863091E-04  1.62580320E-02
  8.97367180E-02  1.59667057E-02  9.01288050E-02  1.53218784E-02  8.98895228E-02
 -4.43866309E-01 -7.24843096E-01  2.54704304E-17  2.20936848E-17  1.50199804E-16
  1.51991616E-16  2.80499068E-03  4.01694397E-03 -6.57651359E-04 -4.22228271E-04
  9.83190799E-05 -1.18107347E-03 -6.16334373E-04 -4.46793860E-04  7.77879786E-03
  5.23601528E-03 -2.75784921E-03 -3.15921848E-03  9.77807128E-03  1.54674810E-02
 -1.35633751E-03 -3.53224800E-03  1.61975978E-02  9.01076338E-02 -4.44382691E-01
 -7.24677718E-01  1.57950672E-02  9.00707457E-02  1.59484760E-02  8.99279751E-02
  2.33312455E-17  2.02381025E-17  5.44688521E-17  7.00580013E-17  1.64971013E-02
  9.02111900E-02  1.59918067E-02  8.97657572E-02  1.62356062E-02  9.00429002E-02
 -4.43493812E-01 -7.24354751E-01  4.49818730E-04  1.72034830E-04  4.17326973E-04
  1.77202209E-04 -2.08603047E-03 -2.29662765E-03 -9.79525886E-04  6.26158818E-04
  9.07720625E-04  5.83586007E-04 -1.10792841E-03  1.30780604E-04 -3.66737629E-04
 -2.53700486E-03 -2.63803849E-03 -1.32920968E-03 -1.31557281E-17 -1.14116057E-17
 -8.71349497E-17 -5.40139569E-17 -1.04446974E-03 -1.03026213E-03 -7.79515445E-05
  1.95197665E-04  2.82857215E-03 -4.10478841E-04 -6.54257827E-04  5.15892544E-04
  1.62895587E-02  8.98774453E-02  1.60006756E-02  9.00674340E-02  1.62614438E-02
  9.00472212E-02 -4.43529430E-01 -7.24334784E-01  5.57931296E-04  1.61032973E-04
 -3.08110278E-03 -2.27722873E-03 -1.41212386E-04  4.79971646E-04  4.29891167E-04
  2.11747470E-04  2.73327813E-17  2.37091343E-17 -1.33147704E-16 -9.77042048E-17
  8.75062667E-03  2.01975251E-02 -1.48499632E-03 -2.75095932E-03 -1.34563716E-03
 -2.68075790E-03  6.43617886E-04 -3.54688744E-03 -1.72621045E-03 -4.27924179E-04
  3.09693191E-04  2.65753903E-04  3.19992295E-04 -1.73767963E-03 -3.67815445E-05
  4.88539240E-04  1.63252224E-02  8.95535596E-02  1.57776939E-02  9.02655348E-02
 -4.43991485E-01 -7.24985182E-01  1.52956915E-02  8.99281654E-02  8.84429003E-18
  7.67175708E-18 -1.31128906E-16 -9.18386737E-17 -1.36723588E-03 -6.48042311E-04
  8.76758554E-04  1.67868245E-05 -3.51915277E-03 -1.07815675E-03  3.09821950E-04
  3.08811704E-04 -4.43794880E-01 -7.24219351E-01  1.61567687E-02  8.97101015E-02
  1.58550583E-02  9.01928631E-02  1.62096836E-02  8.98591949E-02 -7.29314350E-04
 -1.01359883E-03  6.76486034E-03  6.69376775E-03 -1.14606080E-03 -7.97397311E-04
 -7.66270658E-04 -9.30458198E-04 -1.66114598E-17 -1.44091933E-17 -8.54925700E-17
 -5.61309503E-17  7.56026904E-03  6.35646914E-03 -3.01279350E-03 -3.11424530E-03
  9.17899704E-03  1.46038542E-02 -3.61951575E-04 -3.72821897E-03  1.55681380E-02
  9.02513810E-02  1.62472859E-02  8.99666426E-02 -4.44971202E-01 -7.24831604E-01
  1.58915892E-02  9.00060361E-02 -2.01302181E-03 -2.06328174E-03  9.15225822E-03
  1.65610807E-02  1.34331350E-03 -2.58264749E-03 -4.54416296E-04 -2.56756758E-03
  1.08351412E-17  9.39867084E-18 -1.68184361E-16 -1.25082293E-16 -4.45198250E-01
 -7.25066955E-01  1.61473335E-02  9.00876978E-02  1.56480191E-02  8.98857819E-02
  1.59902934E-02  9.00797390E-02 -5.45052864E-04 -1.27655296E-03 -1.18363927E-03
 -8.53762668E-04  6.48836241E-03  7.84522589E-03 -6.72554251E-04 -1.29466728E-03
 -4.86106566E-03 -6.07187153E-03  4.69237825E-03  1.45352345E-03  9.84386798E-03
  1.71652775E-02  9.26081046E-03  1.41904849E-02  3.12028276E-17  2.70661086E-17
 -5.68308550E-17 -2.39249491E-17  6.03603411E-01 -6.13400558E-01 -2.89172860E-01
  3.64028120E-01  1.94217066E-01 -1.60614293E-01 -1.84284628E-01  2.45788782E-01
  4.93431091E-02 -1.11131196E-02 -2.65325642E-01  3.35944490E-01  6.58842195E-01
 -6.74319922E-01 -1.37344923E-01  1.91800645E-01 -4.13059649E-01  5.12551292E-01
  4.98633410E-01 -4.83443640E-01  2.10615469E-01 -1.62717869E-01  1.27696089E-01
 -7.31467224E-02  5.88061913E-17 -6.06739844E-17  6.49120492E-16 -5.16435402E-16
 -5.38678837E-01  5.90271023E-01 -1.30270830E-02  1.19588436E-02  4.44231059E-01
 -5.07354251E-01  6.57177695E-02 -7.88504442E-02  2.87765401E-01 -2.92829875E-01
 -2.99495125E-01  3.75960356E-01  2.94898870E-01 -2.86664583E-01 -3.66933549E-02
  7.39812588E-02  3.01804945E-01 -3.68504004E-01  4.87187725E-01 -5.77757356E-01
 -4.73906697E-01  5.00961262E-01 -5.01357850E-01  5.35811966E-01 -1.24196621E-15
  1.34255045E-15 -3.26674548E-16  2.69148171E-16  7.97021307E-02 -1.17327060E-01
  2.68374804E-01 -3.32244929E-01 -6.70426423E-01  7.46789188E-01  1.63480340E-01
 -2.10540845E-01  7.30377327E-01 -8.44278128E-01 -3.39600091E-02  3.56703079E-02
 -2.84161789E-01  3.20336989E-01 -4.38137838E-01  5.03182838E-01 -2.04250088E-01
  2.52432679E-01  4.12815456E-01 -4.59579377E-01 -6.67855242E-02  9.75800676E-02
 -2.19196512E-02  4.50759602E-02  5.15903257E-16 -4.99517762E-16 -5.15355446E-17
  1.58818897E-16  3.05370181E-02 -3.85476000E-02  5.26948156E-01 -6.21616181E-01
  1.14791768E-01 -1.37989055E-01 -6.76205743E-01  7.98175250E-01  9.21648058E-02
 -1.02731138E-01 -2.29143400E-01  2.75584911E-01 -9.00533408E-02  1.17358526E-01
  2.69376430E-01 -3.12493141E-01 -8.23545687E-02  9.93449124E-02  4.82023859E-02
 -5.63842942E-02 -5.70961350E-01  6.77276453E-01  6.20622377E-01 -7.28905167E-01
  8.15877137E-16 -7.74394339E-16  1.10617045E-15 -5.95066772E-16  4.28064262E-02
 -4.95986849E-02 -1.33129497E-01  1.56944196E-01 -1.04503203E-01  1.15186872E-01
  1.81130391E-01 -2.16562642E-01  2.51156948E-01 -3.03338738E-01 -7.94858841E-01
  9.40410855E-01 -2.95690267E-01  3.43130276E-01  8.05422672E-01 -9.61877607E-01
 -1.20544066E-01  1.43890422E-01 -4.36109783E-02  4.70461817E-02  2.99379673E-01
 -3.53056905E-01 -1.32160298E-01  1.59557255E-01  4.53220730E-16 -4.44869449E-16
  8.07300679E-17 -1.12410427E-16 -8.64429095E-03  6.36206577E-03 -6.27814269E-01
  7.48170140E-01 -2.61652639E-02  2.93263910E-02  6.52270964E-01 -7.79282642E-01
  2.56685878E-02 -3.11526625E-02 -3.01572563E-02  3.56243221E-02 -2.72461121E-02
  3.06396258E-02  2.75667068E-02 -3.33660218E-02 -3.29912907E-02  3.90185576E-02
 -1.01145865E-02  1.10389553E-02 -6.12202743E-01  7.29740314E-01  6.51331758E-01
 -7.77857253E-01  1.44146754E-15 -1.52602896E-15  1.13309804E-15 -1.10213449E-15
  1.79823703E-01 -2.83979514E-01 -4.75429033E-01  5.15867306E-01  2.84305705E-01
 -4.17196524E-01 -4.17443993E-01  4.45098852E-01  6.13756253E-01 -7.75663062E-01
 -1.79394071E-01  1.98448544E-01 -1.94440945E-01  2.16183255E-01 -3.79271400E-01
  4.43067160E-01  5.78870474E-01 -6.31364404E-01 -4.06988204E-01  5.78411424E-01
  1.92847592E-01 -1.49532452E-01  1.53456861E-01 -1.02901283E-01  3.60008325E-16
 -3.19814011E-16  5.90031304E-16 -5.28088029E-16 -3.92848210E-01  4.56970052E-01
 -2.28210095E-01  2.47686752E-01  5.45888324E-01 -7.11359942E-01 -1.34220772E-01
  1.32989602E-01  3.65251419E-01 -3.79048946E-01  3.83255819E-01 -4.02197431E-01
 -3.42804635E-01  4.99518696E-01  4.59111720E-02  1.14219772E-02 -8.59200426E-01
  9.34590663E-01 -4.86675776E-02 -7.04050439E-02  1.20955841E-01 -2.80020961E-01
 -1.29635249E-02 -1.14134639E-01 -8.76143281E-16  9.36859687E-16 -2.72170231E-16
  2.26758481E-16 -3.10338190E-01  5.12369586E-01  4.58808037E-01 -4.61123234E-01
  1.97075753E-01 -1.24598642E-01  3.75207725E-01 -3.57813914E-01 -2.56915251E-02
 -1.06090834E-01 -6.01579227E-01  6.12377853E-01  3.00434811E-01 -5.22189020E-01
 -5.47085877E-01  5.45460597E-01 -2.84210123E-01  2.93243206E-01 -5.42557446E-01
  6.21956754E-01  1.92201586E-01 -3.13903370E-01  2.36885119E-01 -3.66602758E-01