                  Welcome to Q-Chem
     A Quantum Leap Into The Future Of Chemistry


 Q-Chem 4.3, Q-Chem, Inc., Pleasanton, CA (2015)

 Y. Shao,  Z. Gan,  E. Epifanovsky,  A. T. B. Gilbert,  M. Wormit,  
 J. Kussmann,  A. W. Lange,  A. Behn,  J. Deng,  X. Feng,  D. Ghosh,  
 M. Goldey,  P. R. Horn,  L. D. Jacobson,  I. Kaliman,  R. Z. Khaliullin,  
 T. Kus,  A. Landau,  J. Liu,  E. I. Proynov,  Y. M. Rhee,  R. M. Richard,  
 M. A. Rohrdanz,  R. P. Steele,  E. J. Sundstrom,  H. L. Woodcock III,  
 P. M. Zimmerman,  D. Zuev,  B. Albrecht,  E. Alguire,  B. Austin,  
 S. A. Baeppler,  G. J. O. Beran,  Y. A. Bernard,  E. Berquist,  
 K. Brandhorst,  K. B. Bravaya,  S. T. Brown,  D. Casanova,  C.-M. Chang,  
 Y. Chen,  S. H. Chien,  K. D. Closser,  D. L. Crittenden,  M. Diedenhofen,  
 R. A. DiStasio Jr.,  H. Do,  A. D. Dutoi,  R. G. Edgar,  P.-T. Fang,  
 S. Fatehi,  Q. Feng,  L. Fusti-Molnar,  A. Ghysels,  
 A. Golubeva-Zadorozhnaya,  J. Gomes,  A. Gunina,  M. W. D. Hanson-Heine,  
 P. H. P. Harbach,  A. W. Hauser,  E. G. Hohenstein,  Z. C. Holden,  K. Hui,  
 T.-C. Jagau,  H. Ji,  B. Kaduk,  K. Khistyaev,  Jaehoon Kim,  Jihan Kim,  
 R. A. King,  P. Klunzinger,  D. Kosenkov,  T. Kowalczyk,  C. M. Krauter,  
 K. U. Lao,  A. Laurent,  K. V. Lawler,  S. Lehtola,  S. V. Levchenko,  
 C. Y. Lin,  Y.-S. Lin,  F. Liu,  E. Livshits,  R. C. Lochan,  A. Luenser,  
 P. Manohar,  S. F. Manzer,  S.-P. Mao,  N. Mardirossian,  A. V. Marenich,  
 L. A. Martinez-Martinez,  S. A. Maurer,  N. J. Mayhall,  K. Nanda,  
 C. M. Oana,  R. Olivares-Amaya,  D. P. O'Neill,  J. A. Parkhill,  
 T. M. Perrine,  R. Peverati,  P. A. Pieniazek,  F. Plasser,  A. Prociuk,  
 D. R. Rehn,  E. Rosta,  N. J. Russ,  N. Sergueev,  S. M. Sharada,  
 S. Sharma,  D. W. Small,  A. Sodt,  T. Stauch,  T. Stein,  D. Stuck,  
 Y.-C. Su,  A. J. W. Thom,  T. Tsuchimochi,  L. Vogt,  O. Vydrov,  T. Wang,  
 M. A. Watson,  J. Wenzel,  A. White,  C. F. Williams,  V. Vanovschi,  
 S. Yeganeh,  S. R. Yost,  Z.-Q. You,  I. Y. Zhang,  X. Zhang,  Y. Zhao,  
 B. R. Brooks,  G. K. L. Chan,  D. M. Chipman,  C. J. Cramer,  
 W. A. Goddard III,  M. S. Gordon,  W. J. Hehre,  A. Klamt,  
 H. F. Schaefer III,  M. W. Schmidt,  C. D. Sherrill,  D. G. Truhlar,  
 A. Warshel,  X. Xu,  A. Aspuru-Guzik,  R. Baer,  A. T. Bell,  N. A. Besley,  
 J.-D. Chai,  A. Dreuw,  B. D. Dunietz,  T. R. Furlani,  S. R. Gwaltney,  
 C.-P. Hsu,  Y. Jung,  J. Kong,  D. S. Lambrecht,  W. Liang,  C. Ochsenfeld,  
 V. A. Rassolov,  L. V. Slipchenko,  J. E. Subotnik,  T. Van Voorhis,  
 J. M. Herbert,  A. I. Krylov,  P. M. W. Gill,  M. Head-Gordon

 Contributors to earlier versions of Q-Chem not listed above: 
 R. D. Adamson,  J. Baker,  E. F. C. Byrd,  A. K. Chakraborty,  C.-L. Cheng,  
 H. Dachsel,  R. J. Doerksen,  G. Hawkins,  A. Heyden,  S. Hirata,  
 G. Kedziora,  F. J. Keil,  C. Kelley,  P. P. Korambath,  W. Kurlancheek,  
 A. M. Lee,  M. S. Lee,  D. Liotard,  I. Lotan,  P. E. Maslen,  N. Nair,  
 D. Neuhauser,  R. Olson,  B. Peters,  J. Ritchie,  N. E. Schultz,  
 N. Shenvi,  A. C. Simmonett,  K. S. Thanthiriwatte,  Q. Wu,  W. Zhang

 Please cite Q-Chem as follows:
 Y. Shao et al., Mol. Phys. 113, 184-215 (2015)
 DOI: 10.1080/00268976.2014.952696

 Q-Chem 4.3.0 for Intel X86 EM64T Linux

 Parts of Q-Chem use Armadillo 5.200.1 (Boston Tea Smuggler).
 http://arma.sourceforge.net/

 Q-Chem begins on Mon Mar 20 16:11:01 2017  


Host: 0

     Scratch files written to /home/nmayhall/scratch_qchem/05//
 Dec1416 |home|nmayhall|qcSoftware|qchem|qchem.svn-casman|libmdc|qstr_RNUM -1
 Using version located at /home/nmayhall/qcSoftware/qchem/qchem.svn-casman/bin/qchem


Total Memory Limit in MB = 2000
Mega-Array Size in MB = 62

Checking the input file for inconsistencies... 	...done.

 Q-Chem warning in module /home/nmayhall/qcSoftware/qchem/qchem.svn-casman/forms1/BasisType.C, line 1452:

 You are not using the predefined 5D/6D in this basis set.

Finally everything over in PARseQInput

--------------------------------------------------------------
User input:
--------------------------------------------------------------
$rem
	exchange 		hf
	unrestricted		1
	basis			6-31g*	
	aux_basis		rimp2-vdz
	scf_guess		core	
	scf_convergence		8
	purecart		1111

	symmetry		0
	sym_ignore		1

	!correlation		sf-cas
	!cas_n_spin_flip		1
	!cas_local		1
	gui			2
$end

$development
	1sf_heis_projection	1
$end

$molecule
0 13
H         -0.73854       -0.54065        0.08576
H         -2.31340       -1.01748       -0.67017
H         -2.09582        0.65549       -0.01146
H         -2.21044       -0.75437        1.11995
H	1.47674	3.57203	0.09828
H	0.1685	4.16022	1.20546
H	0.18287	2.4348	0.65668
H	-0.21686	3.75528	-0.51743
H          3.48850       -0.87553       -0.06084
H          2.29649        0.48578       -0.00191
H          1.93960       -1.06676        0.85992
H          1.91588       -1.00965       -0.95022
He	10	10	10	
He	-10	10	10	
$end


--------------------------------------------------------------
 ----------------------------------------------------------------
             Standard Nuclear Orientation (Angstroms)
    I     Atom           X                Y                Z
 ----------------------------------------------------------------
    1      H      -0.7385400000    -0.5406500000     0.0857600000
    2      H      -2.3134000000    -1.0174800000    -0.6701700000
    3      H      -2.0958200000     0.6554900000    -0.0114600000
    4      H      -2.2104400000    -0.7543700000     1.1199500000
    5      H       1.4767400000     3.5720300000     0.0982800000
    6      H       0.1685000000     4.1602200000     1.2054600000
    7      H       0.1828700000     2.4348000000     0.6566800000
    8      H      -0.2168600000     3.7552800000    -0.5174300000
    9      H       3.4885000000    -0.8755300000    -0.0608400000
   10      H       2.2964900000     0.4857800000    -0.0019100000
   11      H       1.9396000000    -1.0667600000     0.8599200000
   12      H       1.9158800000    -1.0096500000    -0.9502200000
   13      He     10.0000000000    10.0000000000    10.0000000000
   14      He    -10.0000000000    10.0000000000    10.0000000000
 ----------------------------------------------------------------
 Nuclear Repulsion Energy =    12.6134507671 hartrees
 There are       14 alpha and        2 beta electrons
 Requested basis set is 6-31G(d)
 There are 28 shells and 28 basis functions

Total QAlloc Memory Limit   2000 MB
Mega-Array Size        61 MB
MEM_STATIC part        62 MB

finished with qalloc call

                       Distance Matrix (Angstroms)
             H (  1)   H (  2)   H (  3)   H (  4)   H (  5)   H (  6)
   H (  2)  1.810796
   H (  3)  1.811743  1.811096
   H (  4)  1.811550  1.812280  1.811334
   H (  5)  4.671377  6.001606  4.613180  5.775538
   H (  6)  4.916770  6.040397  4.346398  5.460757  1.811990
   H (  7)  3.166741  4.462077  2.967286  4.014145  1.810857  1.810646
   H (  8)  4.369325  5.215175  3.659945  5.195413  1.811342  1.811306
   H (  9)  4.242818  5.835536  5.790604  5.821242  4.883983  6.163172
   H ( 10)  3.205098  4.894635  4.395598  4.807178  3.194834  4.414475
   H ( 11)  2.836997  4.520134  4.473261  4.169896  4.723633  5.529694
   H ( 12)  2.887761  4.238549  4.443838  4.623558  4.720592  5.867525
   He( 13) 18.019814 19.668686 18.271783 18.536629 14.560523 14.425857
   He( 14) 17.180573 17.155792 15.812187 15.974636 16.464459 14.657604
             H (  7)   H (  8)   H (  9)   H ( 10)   H ( 11)   H ( 12)
   H (  8)  1.811625
   H (  9)  4.732897  5.948325
   H ( 10)  2.949544  4.155998  1.810394
   H ( 11)  3.922796  5.458890  1.812032  1.811216
   H ( 12)  4.177282  5.238363  1.811662  1.811206  1.811196
   He( 13) 15.521144 15.937286 16.183241 15.808310 16.461600 17.506362
   He( 14) 15.755022 15.662780 20.035900 18.486813 18.669984 19.573143
             He( 13)
   He( 14) 20.000000


 Q-Chem warning in module /home/nmayhall/qcSoftware/qchem/qchem.svn-casman/forms1/BasisType.C, line 1375:

 SAD: How to set up polarization functions for non-Pople basis?

 Requested basis set is rimp2-VDZ
 There are 82 shells and 186 basis functions
 Job number = 2, Threshold = 1.00E-11
Integral type ranges set in mkLRange.C for JobNum: 2  <1-7|1-7>
Symmetry turned off temporarily
 Using the largest function pair in Schwarz integrals
Total number of integrals generated =            1007
Symmetry turned back on
 A cutoff of  1.0D-11 yielded    281 shell pairs
 There are       281 function pairs
 Job number = 11, Threshold = 1.00E-11
Integral type ranges set in mkLRange.C for JobNum: 11  <1-1|8-8>

 -------------------------------------------------------
 OpenMP Integral Computing Module                       
 Release: version 1.0, May 2013, Q-Chem Inc. Pittsburgh 
 -------------------------------------------------------
 Integral Job Info:
 Integral job number is                      11
 Integral operator is                         1
 short-range coefficients                     0
 long-range coefficients              100000000
 Omega coefficients                           0
 if combine SR and LR in K                    0
 Integral screening is                        0
 Integral computing path is                   2
 max size of driver memory is            800000
 size of driver memory is                 11780
 size of scratch memory is               800000
 max col of scratch BK array                289
 max len of scratch array in speh3            1
 max len of scratch index in speh4            2
 max int batch size is                      520
 min int batch size is                       52
 fixed nKL is                               520
 max L of basis functions is                  0
 order of int derivative is                   0
 number of shells is                         28
 number of basis is                          28
 number of cartesian basis is                28
 number of contracted shell pairs           281
 number of primitive shell pairs            803
 maxK2 (contraction) of shell pair            9
 max number of K2 of shell pair               1
 max number of CS2 of shell pair            146
 max number of PS2 of shell pair            438
 mem total for path MDJ                    6768
 -------------------------------------------------------
 Smallest overlap matrix eigenvalue = 2.05E-01
 Multipole matrices computed through 2nd order

  Scale SEOQF with 1.000000e-02/1.000000e-02/1.000000e-02

 Standard Electronic Orientation quadrupole field applied
 Nucleus-field energy     =     0.0000000005 hartrees
GuessMan:  IGuess = 1
 Guess MOs from core Hamiltonian diagonalization
scfman initvdwdat 
 An unrestricted Hartree-Fock SCF calculation will be
 performed using Pulay DIIS extrapolation
 SCF converges when DIIS error is below 1.0E-08
Finding J and K together
 Job number = 22, Threshold = 1.00E-11
Integral type ranges set in mkLRange.C for JobNum: 22  <1-1|1-1>
Storing 4588.93% of integrals
Total number of integrals generated =           35858
 MakeJK  time:  CPU       0.01 s  wall       0.01 s
Fock build time:  0.01 s (CPU) 0.01 s (wall)
DIIS Errors:  Max 3.43E-01 RMS 2.96E-02

Current DIIS subspace size = 1
REM_GRID_RESTART_DIIS = 0

 ---------------------------------------
  Cycle       Energy         DIIS Error
 ---------------------------------------
    1      -9.4921203477      2.96E-02  00000
Finding J and K together
 Job number = 22, Threshold = 1.00E-11
Integral type ranges set in mkLRange.C for JobNum: 22  <1-1|1-1>
Storing 4588.93% of integrals
Reusing in-core integrals buffer for job 22
 MakeJK  time:  CPU       0.00 s  wall       0.00 s
Fock build time:  0.00 s (CPU) 0.00 s (wall)
DIIS Errors:  Max 2.54E-01 RMS 1.93E-02

Current DIIS subspace size = 2
REM_GRID_RESTART_DIIS = 0

    2     -11.3695569113      1.93E-02  00000
Finding J and K together
 Job number = 22, Threshold = 1.00E-11
Integral type ranges set in mkLRange.C for JobNum: 22  <1-1|1-1>
Storing 4588.93% of integrals
Reusing in-core integrals buffer for job 22
 MakeJK  time:  CPU       0.00 s  wall       0.00 s
Fock build time:  0.00 s (CPU) 0.00 s (wall)
DIIS Errors:  Max 1.07E-01 RMS 8.43E-03

Current DIIS subspace size = 3
REM_GRID_RESTART_DIIS = 0

    3     -11.4374813148      8.43E-03  00000
Finding J and K together
 Job number = 22, Threshold = 1.00E-11
Integral type ranges set in mkLRange.C for JobNum: 22  <1-1|1-1>
Storing 4588.93% of integrals
Reusing in-core integrals buffer for job 22
 MakeJK  time:  CPU       0.00 s  wall       0.00 s
Fock build time:  0.00 s (CPU) 0.00 s (wall)
DIIS Errors:  Max 9.53E-03 RMS 9.21E-04

Current DIIS subspace size = 4
REM_GRID_RESTART_DIIS = 0

    4     -11.4680006425      9.21E-04  00000
Finding J and K together
 Job number = 22, Threshold = 1.00E-11
Integral type ranges set in mkLRange.C for JobNum: 22  <1-1|1-1>
Storing 4588.93% of integrals
Reusing in-core integrals buffer for job 22
 MakeJK  time:  CPU       0.00 s  wall       0.00 s
Fock build time:  0.00 s (CPU) 0.00 s (wall)
DIIS Errors:  Max 1.43E-04 RMS 1.11E-05

Current DIIS subspace size = 5
REM_GRID_RESTART_DIIS = 0

    5     -11.4706513095      1.11E-05  00000
Finding J and K together
 Job number = 22, Threshold = 1.00E-11
Integral type ranges set in mkLRange.C for JobNum: 22  <1-1|1-1>
Storing 4588.93% of integrals
Reusing in-core integrals buffer for job 22
 MakeJK  time:  CPU       0.00 s  wall       0.00 s
Fock build time:  0.00 s (CPU) 0.00 s (wall)
DIIS Errors:  Max 1.10E-05 RMS 8.32E-07

Current DIIS subspace size = 6
REM_GRID_RESTART_DIIS = 0

    6     -11.4707577863      8.32E-07  00000
Finding J and K together
 Job number = 22, Threshold = 1.00E-11
Integral type ranges set in mkLRange.C for JobNum: 22  <1-1|1-1>
Storing 4588.93% of integrals
Reusing in-core integrals buffer for job 22
 MakeJK  time:  CPU       0.00 s  wall       0.00 s
Fock build time:  0.00 s (CPU) 0.00 s (wall)
DIIS Errors:  Max 7.06E-07 RMS 6.03E-08

Current DIIS subspace size = 7
REM_GRID_RESTART_DIIS = 0

    7     -11.4707743579      6.03E-08  00000
Finding J and K together
 Job number = 22, Threshold = 1.00E-11
Integral type ranges set in mkLRange.C for JobNum: 22  <1-1|1-1>
Storing 4588.93% of integrals
Reusing in-core integrals buffer for job 22
 MakeJK  time:  CPU       0.00 s  wall       0.00 s
Fock build time:  0.00 s (CPU) 0.00 s (wall)
DIIS Errors:  Max 1.61E-07 RMS 1.22E-08

Current DIIS subspace size = 8
REM_GRID_RESTART_DIIS = 0

    8     -11.4707774306      1.22E-08  00000
Finding J and K together
 Job number = 22, Threshold = 1.00E-11
Integral type ranges set in mkLRange.C for JobNum: 22  <1-1|1-1>
Storing 4588.93% of integrals
Reusing in-core integrals buffer for job 22
 MakeJK  time:  CPU       0.00 s  wall       0.00 s
Fock build time:  0.00 s (CPU) 0.00 s (wall)
DIIS Errors:  Max 8.81E-09 RMS 6.51E-10

Current DIIS subspace size = 9
REM_GRID_RESTART_DIIS = 0

    9     -11.4707777428      6.51E-10  00000 Convergence criterion met
 ---------------------------------------
 <S^2> = 42.0000
 SCF time:  CPU 0.04 s  wall 0.04 s
 SCF   energy in the final basis set = -11.4707777428
 Total energy in the final basis set = -11.4707777428
Symmetry turned off temporarily
 Analysis of SCF Wavefunction

 --------------------------------------------------------------

                    Orbital Energies (a.u.)
 --------------------------------------------------------------

 Alpha MOs
 -- Occupied --
 -0.914  -0.914  -0.711  -0.700  -0.698  -0.471  -0.467  -0.461
 -0.455  -0.454  -0.452  -0.446  -0.441  -0.436
 -- Virtual --
  0.815   0.860   0.871   0.904   0.919   0.928   0.972   0.976
  0.998   1.057   1.145   1.156   1.400   1.400

 Beta MOs
 -- Occupied --
 -0.914  -0.914
 -- Virtual --
 -0.052  -0.036  -0.033   0.134   0.143   0.150   0.160   0.164
  0.166   0.180   0.190   0.198   1.040   1.075   1.083   1.111
  1.123   1.130   1.169   1.173   1.194   1.260   1.341   1.351
  1.400   1.400
 --------------------------------------------------------------

          Ground-State Mulliken Net Atomic Charges

     Atom                 Charge (a.u.)    Spin (a.u.)
  --------------------------------------------------------
      1 H                     0.000078       0.999922
      2 H                     0.000022       0.999978
      3 H                    -0.000015       1.000015
      4 H                     0.000003       0.999997
      5 H                    -0.000025       1.000025
      6 H                     0.000019       0.999981
      7 H                     0.000023       0.999977
      8 H                    -0.000024       1.000024
      9 H                     0.000069       0.999931
     10 H                     0.000000       1.000000
     11 H                    -0.000075       1.000075
     12 H                    -0.000075       1.000075
     13 He                    0.000000       0.000000
     14 He                    0.000000       0.000000
  --------------------------------------------------------
  Sum of atomic charges =    -0.000000
  Sum of spin   charges =    12.000000

 -----------------------------------------------------------------
                    Cartesian Multipole Moments
 -----------------------------------------------------------------
    Charge (ESU x 10^10)
                -0.0000
    Dipole Moment (Debye)
         X      -0.0002      Y      -0.0005      Z       0.0003
       Tot       0.0006
    Quadrupole Moments (Debye-Ang)
        XX     -19.6292     XY       0.0156     YY     -19.5585
        XZ      -0.0003     YZ      -0.0125     ZZ     -19.5119
    Octopole Moments (Debye-Ang^2)
       XXX     -19.5195    XXY     -34.5453    XYY      -4.8453
       YYY    -106.4739    XXZ     -22.9102    XYZ      -0.0123
       YYZ     -23.8277    XZZ      -4.1116    YZZ     -34.4884
       ZZZ     -70.7096
    Hexadecapole Moments (Debye-Ang^3)
      XXXX   -1642.6860   XXXY     -11.7155   XXYY    -566.8327
      XYYY     -10.0507   YYYY   -1743.7728   XXXZ       3.4243
      XXYZ    -214.3479   XYYZ       0.0739   YYYZ    -652.0326
      XXZZ    -491.0272   XYZZ      -3.2152   YYZZ    -516.6385
      XZZZ       4.4616   YZZZ    -646.9881   ZZZZ   -1318.2269
 -----------------------------------------------------------------
 JobOver = TRUE
Archival summary:
1\1\sinatra\SP\HF\6-31G*\e212()\nmayhall\MonMar2016:11:022017MonMar2016:11:022017\0\\#,HF,6-31G*,\\0,13\H\H,1,1.8108\H,2,1.8111,1,60.0291\H,3,1.81133,2,60.0389,1,70.5227,0\H,1,2.837,2,152.386,3,178.05,0\H,5,1.8112,1,73.0863,2,-68.5028,0\H,6,1.81121,5,60.0005,1,-92.9521,0\H,7,1.81039,6,60.0315,5,-70.571,0\H,7,2.94954,6,120.791,5,94.8587,0\H,9,1.81065,7,134.672,6,162.907,0\H,9,1.81086,7,80.4514,6,134.345,0\H,10,1.81131,9,60.0237,7,-103.482,0\He,10,14.4259,9,124.411,7,34.7501,0\He,10,14.6576,9,124.542,7,147.808,0\\HF=-11.4707777\\@

 Total job time:  0.10s(wall), 0.10s(cpu) 
 Mon Mar 20 16:11:02 2017

        *************************************************************
        *                                                           *
        *  Thank you very much for using Q-Chem.  Have a nice day.  *
        *                                                           *
        *************************************************************


*** MISSION COMPLETED -- STARFLEET OUT ***

 
User input: 2 of 2 
 
                  Welcome to Q-Chem
     A Quantum Leap Into The Future Of Chemistry


 Q-Chem 4.3, Q-Chem, Inc., Pleasanton, CA (2015)

 Y. Shao,  Z. Gan,  E. Epifanovsky,  A. T. B. Gilbert,  M. Wormit,  
 J. Kussmann,  A. W. Lange,  A. Behn,  J. Deng,  X. Feng,  D. Ghosh,  
 M. Goldey,  P. R. Horn,  L. D. Jacobson,  I. Kaliman,  R. Z. Khaliullin,  
 T. Kus,  A. Landau,  J. Liu,  E. I. Proynov,  Y. M. Rhee,  R. M. Richard,  
 M. A. Rohrdanz,  R. P. Steele,  E. J. Sundstrom,  H. L. Woodcock III,  
 P. M. Zimmerman,  D. Zuev,  B. Albrecht,  E. Alguire,  B. Austin,  
 S. A. Baeppler,  G. J. O. Beran,  Y. A. Bernard,  E. Berquist,  
 K. Brandhorst,  K. B. Bravaya,  S. T. Brown,  D. Casanova,  C.-M. Chang,  
 Y. Chen,  S. H. Chien,  K. D. Closser,  D. L. Crittenden,  M. Diedenhofen,  
 R. A. DiStasio Jr.,  H. Do,  A. D. Dutoi,  R. G. Edgar,  P.-T. Fang,  
 S. Fatehi,  Q. Feng,  L. Fusti-Molnar,  A. Ghysels,  
 A. Golubeva-Zadorozhnaya,  J. Gomes,  A. Gunina,  M. W. D. Hanson-Heine,  
 P. H. P. Harbach,  A. W. Hauser,  E. G. Hohenstein,  Z. C. Holden,  K. Hui,  
 T.-C. Jagau,  H. Ji,  B. Kaduk,  K. Khistyaev,  Jaehoon Kim,  Jihan Kim,  
 R. A. King,  P. Klunzinger,  D. Kosenkov,  T. Kowalczyk,  C. M. Krauter,  
 K. U. Lao,  A. Laurent,  K. V. Lawler,  S. Lehtola,  S. V. Levchenko,  
 C. Y. Lin,  Y.-S. Lin,  F. Liu,  E. Livshits,  R. C. Lochan,  A. Luenser,  
 P. Manohar,  S. F. Manzer,  S.-P. Mao,  N. Mardirossian,  A. V. Marenich,  
 L. A. Martinez-Martinez,  S. A. Maurer,  N. J. Mayhall,  K. Nanda,  
 C. M. Oana,  R. Olivares-Amaya,  D. P. O'Neill,  J. A. Parkhill,  
 T. M. Perrine,  R. Peverati,  P. A. Pieniazek,  F. Plasser,  A. Prociuk,  
 D. R. Rehn,  E. Rosta,  N. J. Russ,  N. Sergueev,  S. M. Sharada,  
 S. Sharma,  D. W. Small,  A. Sodt,  T. Stauch,  T. Stein,  D. Stuck,  
 Y.-C. Su,  A. J. W. Thom,  T. Tsuchimochi,  L. Vogt,  O. Vydrov,  T. Wang,  
 M. A. Watson,  J. Wenzel,  A. White,  C. F. Williams,  V. Vanovschi,  
 S. Yeganeh,  S. R. Yost,  Z.-Q. You,  I. Y. Zhang,  X. Zhang,  Y. Zhao,  
 B. R. Brooks,  G. K. L. Chan,  D. M. Chipman,  C. J. Cramer,  
 W. A. Goddard III,  M. S. Gordon,  W. J. Hehre,  A. Klamt,  
 H. F. Schaefer III,  M. W. Schmidt,  C. D. Sherrill,  D. G. Truhlar,  
 A. Warshel,  X. Xu,  A. Aspuru-Guzik,  R. Baer,  A. T. Bell,  N. A. Besley,  
 J.-D. Chai,  A. Dreuw,  B. D. Dunietz,  T. R. Furlani,  S. R. Gwaltney,  
 C.-P. Hsu,  Y. Jung,  J. Kong,  D. S. Lambrecht,  W. Liang,  C. Ochsenfeld,  
 V. A. Rassolov,  L. V. Slipchenko,  J. E. Subotnik,  T. Van Voorhis,  
 J. M. Herbert,  A. I. Krylov,  P. M. W. Gill,  M. Head-Gordon

 Contributors to earlier versions of Q-Chem not listed above: 
 R. D. Adamson,  J. Baker,  E. F. C. Byrd,  A. K. Chakraborty,  C.-L. Cheng,  
 H. Dachsel,  R. J. Doerksen,  G. Hawkins,  A. Heyden,  S. Hirata,  
 G. Kedziora,  F. J. Keil,  C. Kelley,  P. P. Korambath,  W. Kurlancheek,  
 A. M. Lee,  M. S. Lee,  D. Liotard,  I. Lotan,  P. E. Maslen,  N. Nair,  
 D. Neuhauser,  R. Olson,  B. Peters,  J. Ritchie,  N. E. Schultz,  
 N. Shenvi,  A. C. Simmonett,  K. S. Thanthiriwatte,  Q. Wu,  W. Zhang

 Please cite Q-Chem as follows:
 Y. Shao et al., Mol. Phys. 113, 184-215 (2015)
 DOI: 10.1080/00268976.2014.952696

 Q-Chem 4.3.0 for Intel X86 EM64T Linux

 Parts of Q-Chem use Armadillo 5.200.1 (Boston Tea Smuggler).
 http://arma.sourceforge.net/

 Q-Chem begins on Mon Mar 20 16:11:02 2017  


Host: 0

     Scratch files written to /home/nmayhall/scratch_qchem/05//
 Dec1416 |home|nmayhall|qcSoftware|qchem|qchem.svn-casman|libmdc|qstr_RNUM -1
 Using version located at /home/nmayhall/qcSoftware/qchem/qchem.svn-casman/bin/qchem

 Turning off symmetry for CASMAN

Total Memory Limit in MB = 2000
Mega-Array Size in MB = 62

Checking the input file for inconsistencies... 	...done.

 Q-Chem warning in module /home/nmayhall/qcSoftware/qchem/qchem.svn-casman/forms1/BasisType.C, line 1452:

 You are not using the predefined 5D/6D in this basis set.

Finally everything over in PARseQInput

--------------------------------------------------------------
User input:
--------------------------------------------------------------
$rem
	exchange 		hf
	unrestricted		0
	basis			6-31g*	
	aux_basis		rimp2-vdz
	scf_guess		read	
	scf_convergence		8
	purecart		1111

	symmetry		0
	sym_ignore		1

	correlation		sf-cas
	cas_n_spin_flip		1
	cas_local		1
	gui			2
$end

$development
	1sf_heis_projection	1
	scf_corresponding_orbs	1
$end

$molecule
read
$end

--------------------------------------------------------------
 ----------------------------------------------------------------
             Standard Nuclear Orientation (Angstroms)
    I     Atom           X                Y                Z
 ----------------------------------------------------------------
    1      H      -0.7385400000    -0.5406500000     0.0857600000
    2      H      -2.3134000000    -1.0174800000    -0.6701700000
    3      H      -2.0958200000     0.6554900000    -0.0114600000
    4      H      -2.2104400000    -0.7543700000     1.1199500000
    5      H       1.4767400000     3.5720300000     0.0982800000
    6      H       0.1685000000     4.1602200000     1.2054600000
    7      H       0.1828700000     2.4348000000     0.6566800000
    8      H      -0.2168600000     3.7552800000    -0.5174300000
    9      H       3.4885000000    -0.8755300000    -0.0608400000
   10      H       2.2964900000     0.4857800000    -0.0019100000
   11      H       1.9396000000    -1.0667600000     0.8599200000
   12      H       1.9158800000    -1.0096500000    -0.9502200000
   13      He     10.0000000000    10.0000000000    10.0000000000
   14      He    -10.0000000000    10.0000000000    10.0000000000
 ----------------------------------------------------------------
 Nuclear Repulsion Energy =    12.6134507671 hartrees
 There are       14 alpha and        2 beta electrons
 Requested basis set is 6-31G(d)
 There are 28 shells and 28 basis functions

Total QAlloc Memory Limit   2000 MB
Mega-Array Size        61 MB
MEM_STATIC part        62 MB

finished with qalloc call

                       Distance Matrix (Angstroms)
             H (  1)   H (  2)   H (  3)   H (  4)   H (  5)   H (  6)
   H (  2)  1.810796
   H (  3)  1.811743  1.811096
   H (  4)  1.811550  1.812280  1.811334
   H (  5)  4.671377  6.001606  4.613180  5.775538
   H (  6)  4.916770  6.040397  4.346398  5.460757  1.811990
   H (  7)  3.166741  4.462077  2.967286  4.014145  1.810857  1.810646
   H (  8)  4.369325  5.215175  3.659945  5.195413  1.811342  1.811306
   H (  9)  4.242818  5.835536  5.790604  5.821242  4.883983  6.163172
   H ( 10)  3.205098  4.894635  4.395598  4.807178  3.194834  4.414475
   H ( 11)  2.836997  4.520134  4.473261  4.169896  4.723633  5.529694
   H ( 12)  2.887761  4.238549  4.443838  4.623558  4.720592  5.867525
   He( 13) 18.019814 19.668686 18.271783 18.536629 14.560523 14.425857
   He( 14) 17.180573 17.155792 15.812187 15.974636 16.464459 14.657604
             H (  7)   H (  8)   H (  9)   H ( 10)   H ( 11)   H ( 12)
   H (  8)  1.811625
   H (  9)  4.732897  5.948325
   H ( 10)  2.949544  4.155998  1.810394
   H ( 11)  3.922796  5.458890  1.812032  1.811216
   H ( 12)  4.177282  5.238363  1.811662  1.811206  1.811196
   He( 13) 15.521144 15.937286 16.183241 15.808310 16.461600 17.506362
   He( 14) 15.755022 15.662780 20.035900 18.486813 18.669984 19.573143
             He( 13)
   He( 14) 20.000000


 Q-Chem warning in module /home/nmayhall/qcSoftware/qchem/qchem.svn-casman/forms1/BasisType.C, line 1375:

 SAD: How to set up polarization functions for non-Pople basis?

 Requested basis set is rimp2-VDZ
 There are 82 shells and 186 basis functions
 Job number = 2, Threshold = 1.00E-12
Integral type ranges set in mkLRange.C for JobNum: 2  <1-7|1-7>
Symmetry turned off temporarily
 Using the largest function pair in Schwarz integrals
Total number of integrals generated =            1013
Symmetry turned back on
 A cutoff of  1.0D-12 yielded    287 shell pairs
 There are       287 function pairs
 Job number = 11, Threshold = 1.00E-12
Integral type ranges set in mkLRange.C for JobNum: 11  <1-1|8-8>

 -------------------------------------------------------
 OpenMP Integral Computing Module                       
 Release: version 1.0, May 2013, Q-Chem Inc. Pittsburgh 
 -------------------------------------------------------
 Integral Job Info:
 Integral job number is                      11
 Integral operator is                         1
 short-range coefficients                     0
 long-range coefficients              100000000
 Omega coefficients                           0
 if combine SR and LR in K                    0
 Integral screening is                        0
 Integral computing path is                   2
 max size of driver memory is            800000
 size of driver memory is                 11780
 size of scratch memory is               800000
 max col of scratch BK array                289
 max len of scratch array in speh3            1
 max len of scratch index in speh4            2
 max int batch size is                      520
 min int batch size is                       52
 fixed nKL is                               520
 max L of basis functions is                  0
 order of int derivative is                   0
 number of shells is                         28
 number of basis is                          28
 number of cartesian basis is                28
 number of contracted shell pairs           287
 number of primitive shell pairs            811
 maxK2 (contraction) of shell pair            9
 max number of K2 of shell pair               1
 max number of CS2 of shell pair            147
 max number of PS2 of shell pair            441
 mem total for path MDJ                    6780
 -------------------------------------------------------
 Smallest overlap matrix eigenvalue = 2.05E-01
 Multipole matrices computed through 2nd order

  Scale SEOQF with 1.000000e-02/1.000000e-02/1.000000e-02

 Standard Electronic Orientation quadrupole field applied
 Nucleus-field energy     =     0.0000000005 hartrees
GuessMan:  IGuess = 1000
 Guess MOs from SCF MO coefficient file
 Reading MOs from coefficient file
 Reading MOs from coefficient file
scfman initvdwdat 
 A restricted Hartree-Fock SCF calculation will be
 performed using Geometric Direct Minimization
 SCF converges when RMS gradient is below 1.0E-08
Finding J and K together
 Job number = 22, Threshold = 1.00E-12
Integral type ranges set in mkLRange.C for JobNum: 22  <1-1|1-1>
Storing 4399.39% of integrals
Total number of integrals generated =           37468
 MakeJK  time:  CPU       0.01 s  wall       0.01 s
Fock build time:  0.01 s (CPU) 0.01 s (wall)
 ---------------------------------------
  Cycle       Energy        RMS Gradient
 ---------------------------------------
    1     -11.4707777707      9.77E-05  00000 Normal BFGS step
Finding J and K together
 Job number = 22, Threshold = 1.00E-12
Integral type ranges set in mkLRange.C for JobNum: 22  <1-1|1-1>
Storing 4399.39% of integrals
Reusing in-core integrals buffer for job 22
 MakeJK  time:  CPU       0.00 s  wall       0.00 s
Fock build time:  0.00 s (CPU) 0.00 s (wall)
    2     -11.4707777758      4.12E-10  00000 Convergence criterion met
 ---------------------------------------
 SCF time:  CPU 0.02 s  wall 0.02 s
 Obtaining Corresponding orbitals

 Forming corresponding orbitals block-by-block...
 Size of singly occupied alpha block:      12 : 12.0000
 Size of doubly occupied block:             2 : 2.0000
 Size of singly occupied beta block:        0 : 0.0000
 Size of unoccupied block:                 14 : 14.0000
 Use scf_boys =     0 (Canonical)
                    1 (Boys)
                    2 (Pipek-Mezey)
                    3 (ER)
 Build new fock matrix
 I'm here
 I'm here
 Calling AOints...
 Job number = 22, Threshold = 1.00E-12
Integral type ranges set in mkLRange.C for JobNum: 22  <1-1|1-1>
Storing 4399.39% of integrals
 done.
 E(SCF): disk=    -11.470777775756 current=    -11.470777775756 diff=  -3.553e-15
 SCF   energy in the final basis set = -11.4707777758
 Total energy in the final basis set = -11.4707777758
 DevKeyword Parameters: 
 1sf_heis_projection                   1
scf_corresponding_orbs                   1


 ========================================================
                       In SF-CAS-CI                      
 ========================================================
 DevKeyword Parameters: 
 1sf_heis_projection                   1
scf_corresponding_orbs                   1

 Forming orbitals for SF-CAS calculation.
NBas   : 28
NOrb   : 28
NDOcc  : 2
NSOcc  : 12
NDVir  : 14
ISpin  : 0
e_hf: -11.47077778
 Using OPT1 Orbitals: Favg | Favg | Favg 
 A/B mix in Doubly occupied F  : 0.50000000
 A/B mix in Singly occupied F  : 0.50000000
 A/B mix in Doubly unoccupied F: 0.50000000
 Max of F(beta)ds      : 5.335e-16
 Max of F(alpha)sv     : 3.827e-12
 Max of F(average)dv   : 2.369e-11
 Orbital Energies  (D):
    1    -0.91413141    -0.91413141
    2    -0.91412559    -0.91412559
 Orbital Energies  (S):
    3    -0.36757549    -0.36757549
    4    -0.35534917    -0.35534917
    5    -0.35292215    -0.35292215
    6    -0.14746567    -0.14746567
    7    -0.14213960    -0.14213960
    8    -0.13543297    -0.13543297
    9    -0.12859918    -0.12859918
   10    -0.12640769    -0.12640769
   11    -0.12463885    -0.12463885
   12    -0.11610132    -0.11610132
   13    -0.10941171    -0.10941171
   14    -0.10382069    -0.10382069
 Orbital Energies  (V):
   15     0.90640541     0.90640541
   16     0.94740191     0.94740191
   17     0.95706016     0.95706016
   18     0.98836951     0.98836951
   19     1.00239842     1.00239842
   20     1.01087536     1.01087536
   21     1.05417943     1.05417943
   22     1.05796758     1.05796758
   23     1.08066567     1.08066567
   24     1.14487017     1.14487017
   25     1.23107650     1.23107650
   26     1.24114785     1.24114785
   27     1.39985455     1.39985455
   28     1.39986038     1.39986038
 tr(Pa)     :   14.0000000000
 tr(Pb)     :    2.0000000000
 E(core) with new P : -38.32001480
 E(HF) with new P   : -11.47077778
 Difference in Ehf  :  -2.1316e-14

 Number of spin flips: 1
 Use cas_local =    0 (Canonical)
                    1 (Boys)
                    2 (Pipek-Mezey)
                    3 (ER)
 Using Boys orbitals in casman
 
 
 
Calling Get_Boys in C++
 
 
 
Orbital 8 Variance 15.01927916
Orbital 9 Variance 22.08066015
Orbital 2 Variance 22.10811383
Orbital 3 Variance 23.47116584
Orbital 5 Variance 24.39236170
Orbital 12 Variance 24.91583573
Orbital 7 Variance 27.05969540
Orbital 10 Variance 27.44108543
Orbital 1 Variance 27.57082290
Orbital 6 Variance 27.72850319
Orbital 11 Variance 28.15355298
Orbital 4 Variance 30.40340278
          ***** NUMBER OF SADDLE POINTS SO FAR = 0 ******

Initially in boys_jacobi.C before sweep, get_boys, boysval = 108.051316
In BOYS_JACOBI SWEEPS for get_boys, ending in round     6  because max_diff = 6.577339e-07


---> BEGIN 2nd Der Calculation    ******  
Guessing MaxD =  20 and MinD = 10
in get_boys.C: p = 0 guessthresh  52.5678482487 numsofar 18 MinD 10
in get_boys.C: p = 1 guessthresh  52.0678482487 numsofar 18 MinD 10
in get_boys.C: p = 2 guessthresh  51.8178482487 numsofar 18 MinD 10
in get_boys.C: p = 3 guessthresh  51.6928482487 numsofar 7 MinD 10
DimInGuess 7 mineval  51.5678482487 guessthresh  51.6928482487
round 0 sizeofsub 7 eval0 5.037305e+01 diffeval0 1.000494e+05 length_qM 1.826234e-01 thresh 1.000000e-08
round 1 sizeofsub 8 eval0 5.036734e+01 diffeval0 5.706091e-03 length_qM 6.518789e-01 thresh 1.000000e-08
round 2 sizeofsub 9 eval0 5.036111e+01 diffeval0 6.228774e-03 length_qM 2.569679e-02 thresh 1.000000e-08
round 3 sizeofsub 10 eval0 5.036099e+01 diffeval0 1.226343e-04 length_qM 9.170292e-02 thresh 1.000000e-08
round 4 sizeofsub 11 eval0 5.036086e+01 diffeval0 1.233761e-04 length_qM 4.954817e-02 thresh 1.000000e-08
round 5 sizeofsub 12 eval0 5.036083e+01 diffeval0 3.215046e-05 length_qM 2.235401e-03 thresh 1.000000e-08
round 6 sizeofsub 13 eval0 5.036083e+01 diffeval0 1.895862e-08 length_qM 4.818124e-05 thresh 1.000000e-08
round 7 sizeofsub 14 eval0 5.036083e+01 diffeval0 1.913847e-10 length_qM 1.369280e-05 thresh 1.000000e-08
round 8 sizeofsub 15 eval0 5.036083e+01 diffeval0 1.677591e-10 length_qM 5.807876e-05 thresh 1.000000e-08
round 9 sizeofsub 16 eval0 5.036083e+01 diffeval0 1.624301e-11 length_qM 1.703175e-06 thresh 1.000000e-08
round 10 sizeofsub 17 eval0 5.036083e+01 diffeval0 4.078515e-12 length_qM 7.368840e-06 thresh 1.000000e-08
round 11 sizeofsub 18 eval0 5.036083e+01 diffeval0 1.882938e-12 length_qM 4.908174e-06 thresh 1.000000e-08
round 12 sizeofsub 19 eval0 5.036083e+01 diffeval0 1.278977e-13 length_qM 1.575924e-07 thresh 1.000000e-08
Converged to smallest eigenvalue: eval0 5.036083e+01

Success!!! No Negative Eigenvalues: Ending Get Boys in C++ ...Bye Bye
Orbital 12 Variance 2.76415712
Orbital 11 Variance 2.76653639
Orbital 6 Variance 2.77117048
Orbital 9 Variance 2.77121340
Orbital 4 Variance 2.77248321
Orbital 5 Variance 2.77256546
Orbital 1 Variance 2.77552485
Orbital 10 Variance 2.77561185
Orbital 7 Variance 2.77607413
Orbital 3 Variance 2.77619971
Orbital 2 Variance 2.77628590
Orbital 8 Variance 2.77633762
EXECUTING ORTHO_FUNC DESTRUCTOR

 Dimensions of orbital sub-spaces:    
 Number Hole Orbs:Alpha:Beta:       2    2    2
 Number Active Orbs:Alpha:Beta:    12   11    1
 Number Part Orbs:Alpha:Beta:      14    0    0

 Dimensions in SF-RAS-hp calculation: 
 Number of active space determinants:  144
 Number of hole space determinants:    1608
 Number of part space determinants:    11256
 Number of hole-part determinants:     130060
 Total 1x space:                       13008
 Total singles space:                  143068
 REM_MEM_TOT: 2000
 Memory Used: 0
 Memory Left: 2000
 Memory Need: 2
 Constructing 1e MO integrals
 Form (P|Q)**(-1/2)...
 Job number = 66, Threshold = 1.00E-12
Integral type ranges set in mkLRange.C for JobNum: 66  <2-7|2-7>
Symmetry turned off temporarily
Storing 4399.39% of integrals
Total number of integrals generated =           19965
Symmetry turned back on
 Forming (pq|P)...
 Forming Active-Active (aa|P) integrals...

 Entering first-index batching code with I1Strt =    3 batch size =   12
 Job number = 65, Threshold = 1.00E-12
Integral type ranges set in mkLRange.C for JobNum: 65  <1-1|2-7>
Symmetry turned off temporarily
Storing 4399.39% of integrals
Total number of integrals generated =           56826
Symmetry turned back on
 Forming Active-Active B integrals...
 Contracting B matrices to form 2e integrals. 
 Forming 2J-K over o,v with exact integrals
 Calling AOints... Job number = 22, Threshold = 1.00E-12
Integral type ranges set in mkLRange.C for JobNum: 22  <1-1|1-1>
Storing 4399.39% of integrals
Total number of integrals generated =           37468
 done.

 ROHF energy found on disk: 
 E(ROHF):         -11.47077778
-11.47077778
 First 10 Diagonal elements of H: 
 11111111111_ | 1___________        -10.93055373
 11111111111_ | _1__________        -10.91307825
 11111111111_ | __1_________        -11.07803172
 11111111111_ | ___1________        -11.07723748
 11111111111_ | ____1_______        -10.99143929
 11111111111_ | _____1______        -10.97170564
 11111111111_ | ______1_____        -11.07792807
 11111111111_ | _______1____        -10.92689420
 11111111111_ | ________1___        -10.99441957
 11111111111_ | _________1__        -10.91853775
 Fill S2_CAS Matrix...  done.
 Fill H_CAS Matrix...  done.

 Diagonalizing H_CAS 
 Entering cast_sfcas_to_sfcis
 ===================================================================
 Theory           State:          Energy (au)       (eV)       <S2>
 -------------------------------------------------------------------
 SF-CAS               1:       -11.5291714448     0.0000    30.0000
 SF-CAS               2:       -11.5286729911     0.0136    30.0000
 SF-CAS               3:       -11.5278431900     0.0361    30.0000
 SF-CAS               4:       -11.5275074454     0.0453    30.0000
 SF-CAS               5:       -11.5272357840     0.0527    30.0000
 SF-CAS               6:       -11.5272189852     0.0531    30.0000
 SF-CAS               7:       -11.5270918646     0.0566    30.0000
 SF-CAS               8:       -11.5269715342     0.0599    30.0000
 SF-CAS               9:       -11.5269172707     0.0613    30.0000
 SF-CAS              10:       -11.4721856010     1.5507    30.0000
 SF-CAS              11:       -11.4717346100     1.5630    30.0000
 SF-CAS              12:       -11.4707777758     1.5890    42.0000
 SF-CAS              13:       -11.2088851511     8.7155    30.0000
 SF-CAS              14:       -11.2056303938     8.8041    30.0000
 SF-CAS              15:       -11.2035755756     8.8600    30.0000
 SF-CAS              16:       -11.2031056033     8.8728    30.0000
 SF-CAS              17:       -11.2028441117     8.8799    30.0000
 SF-CAS              18:       -11.2022194710     8.8969    30.0000
 SF-CAS              19:       -11.2020909416     8.9004    30.0000
 SF-CAS              20:       -11.2017198377     8.9105    30.0000
 SF-CAS              21:       -11.2013660816     8.9201    30.0000
 SF-CAS              22:       -11.1837012268     9.4008    30.0000
 SF-CAS              23:       -11.1800943344     9.4990    30.0000
 SF-CAS              24:       -11.1749736092     9.6383    30.0000
 SF-CAS              25:       -11.1722026655     9.7137    30.0000
 SF-CAS              26:       -11.1701738290     9.7689    30.0000
 SF-CAS              27:       -11.1676362826     9.8380    30.0000
 SF-CAS              28:       -11.1598438568    10.0500    30.0000
 SF-CAS              29:       -11.1568323465    10.1320    30.0000
 SF-CAS              30:       -11.1533583641    10.2265    30.0000
 SF-CAS              31:       -11.1469979736    10.3996    30.0000
 SF-CAS              32:       -11.1442810647    10.4735    30.0000
 SF-CAS              33:       -11.1423046514    10.5273    30.0000
 SF-CAS              34:       -11.1409787250    10.5634    30.0000
 SF-CAS              35:       -11.1390915785    10.6147    30.0000
 SF-CAS              36:       -11.1327787637    10.7865    30.0000
 SF-CAS              37:       -11.1319962430    10.8078    30.0000
 SF-CAS              38:       -11.1278463244    10.9207    30.0000
 SF-CAS              39:       -11.1271510043    10.9396    30.0000
 SF-CAS              40:       -11.0864104835    12.0483    30.0000
 SF-CAS              41:       -11.0861351036    12.0557    30.0000
 SF-CAS              42:       -11.0854428409    12.0746    30.0000
 SF-CAS              43:       -11.0850275558    12.0859    30.0000
 SF-CAS              44:       -11.0844946348    12.1004    30.0000
 SF-CAS              45:       -11.0842873387    12.1060    30.0000
 SF-CAS              46:       -11.0821698209    12.1637    30.0000
 SF-CAS              47:       -11.0818841995    12.1714    30.0000
 SF-CAS              48:       -11.0812462253    12.1888    30.0000
 SF-CAS              49:       -11.0809705401    12.1963    30.0000
 SF-CAS              50:       -11.0806788235    12.2042    30.0000
 SF-CAS              51:       -11.0801411687    12.2189    30.0000
 SF-CAS              52:       -11.0799339147    12.2245    30.0000
 SF-CAS              53:       -11.0791800836    12.2450    30.0000
 SF-CAS              54:       -11.0781850334    12.2721    30.0000
 SF-CAS              55:       -11.0779276205    12.2791    30.0000
 SF-CAS              56:       -11.0775190681    12.2902    30.0000
 SF-CAS              57:       -11.0752982681    12.3506    30.0000
 SF-CAS              58:       -10.9860817038    14.7784    30.0000
 SF-CAS              59:       -10.9857700237    14.7868    30.0000
 SF-CAS              60:       -10.9847322577    14.8151    30.0000
 SF-CAS              61:       -10.9817885034    14.8952    30.0000
 SF-CAS              62:       -10.9783225773    14.9895    30.0000
 SF-CAS              63:       -10.9761427207    15.0488    30.0000
 SF-CAS              64:       -10.9685450794    15.2556    30.0000
 SF-CAS              65:       -10.9675615629    15.2823    30.0000
 SF-CAS              66:       -10.9619366838    15.4354    30.0000
 SF-CAS              67:       -10.9601240452    15.4847    30.0000
 SF-CAS              68:       -10.9561150597    15.5938    30.0000
 SF-CAS              69:       -10.9534548890    15.6662    30.0000
 SF-CAS              70:       -10.9516794229    15.7145    30.0000
 SF-CAS              71:       -10.9502153575    15.7544    30.0000
 SF-CAS              72:       -10.9487347774    15.7946    30.0000
 SF-CAS              73:       -10.9482142968    15.8088    30.0000
 SF-CAS              74:       -10.9467272691    15.8493    30.0000
 SF-CAS              75:       -10.9454065021    15.8852    30.0000
 SF-CAS              76:       -10.9437181291    15.9312    30.0000
 SF-CAS              77:       -10.9426227691    15.9610    30.0000
 SF-CAS              78:       -10.9395127703    16.0456    30.0000
 SF-CAS              79:       -10.9384854654    16.0735    30.0000
 SF-CAS              80:       -10.9376991928    16.0949    30.0000
 SF-CAS              81:       -10.9367714280    16.1202    30.0000
 SF-CAS              82:       -10.9356727862    16.1501    30.0000
 SF-CAS              83:       -10.9347605790    16.1749    30.0000
 SF-CAS              84:       -10.9330456813    16.2216    30.0000
 SF-CAS              85:       -10.9311089822    16.2743    30.0000
 SF-CAS              86:       -10.9297422016    16.3115    30.0000
 SF-CAS              87:       -10.9282778513    16.3513    30.0000
 SF-CAS              88:       -10.9272290497    16.3798    30.0000
 SF-CAS              89:       -10.9256752006    16.4221    30.0000
 SF-CAS              90:       -10.9247648035    16.4469    30.0000
 SF-CAS              91:       -10.9245899900    16.4517    30.0000
 SF-CAS              92:       -10.9230965145    16.4923    30.0000
 SF-CAS              93:       -10.9215945038    16.5332    30.0000
 SF-CAS              94:       -10.9207311852    16.5567    30.0000
 SF-CAS              95:       -10.9198130638    16.5816    30.0000
 SF-CAS              96:       -10.9171138841    16.6551    30.0000
 SF-CAS              97:       -10.9161436271    16.6815    30.0000
 SF-CAS              98:       -10.9159651235    16.6864    30.0000
 SF-CAS              99:       -10.9148737725    16.7161    30.0000
 SF-CAS             100:       -10.9138953008    16.7427    30.0000
 SF-CAS             101:       -10.9130872511    16.7647    30.0000
 SF-CAS             102:       -10.9123016524    16.7860    30.0000
 SF-CAS             103:       -10.9110622716    16.8198    30.0000
 SF-CAS             104:       -10.9104131921    16.8374    30.0000
 SF-CAS             105:       -10.9097304893    16.8560    30.0000
 SF-CAS             106:       -10.9092832822    16.8682    30.0000
 SF-CAS             107:       -10.9064697692    16.9447    30.0000
 SF-CAS             108:       -10.9045079161    16.9981    30.0000
 SF-CAS             109:       -10.9041198855    17.0087    30.0000
 SF-CAS             110:       -10.9036153524    17.0224    30.0000
 SF-CAS             111:       -10.9031648858    17.0347    30.0000
 SF-CAS             112:       -10.8994733619    17.1351    30.0000
 SF-CAS             113:       -10.8982324610    17.1689    30.0000
 SF-CAS             114:       -10.8967420113    17.2094    30.0000
 SF-CAS             115:       -10.8943328384    17.2750    30.0000
 SF-CAS             116:       -10.8934593996    17.2988    30.0000
 SF-CAS             117:       -10.8900466877    17.3916    30.0000
 SF-CAS             118:       -10.8843436435    17.5468    30.0000
 SF-CAS             119:       -10.8839662365    17.5571    30.0000
 SF-CAS             120:       -10.8830751930    17.5813    30.0000
 SF-CAS             121:       -10.8824891420    17.5973    30.0000
 SF-CAS             122:       -10.8810267217    17.6371    30.0000
 SF-CAS             123:       -10.8801025463    17.6622    30.0000
 SF-CAS             124:       -10.8793417548    17.6829    30.0000
 SF-CAS             125:       -10.8770606439    17.7450    30.0000
 SF-CAS             126:       -10.8744091472    17.8172    30.0000
 SF-CAS             127:       -10.7155575777    22.1398    30.0000
 SF-CAS             128:       -10.7113054153    22.2555    30.0000
 SF-CAS             129:       -10.7066483554    22.3822    30.0000
 SF-CAS             130:       -10.7021042433    22.5059    30.0000
 SF-CAS             131:       -10.6986194895    22.6007    30.0000
 SF-CAS             132:       -10.6977296089    22.6249    30.0000
 SF-CAS             133:       -10.6871164171    22.9137    30.0000
 SF-CAS             134:       -10.6865381239    22.9294    30.0000
 SF-CAS             135:       -10.6804298347    23.0957    30.0000
 SF-CAS             136:       -10.6780036306    23.1617    30.0000
 SF-CAS             137:       -10.6776395532    23.1716    30.0000
 SF-CAS             138:       -10.6745383028    23.2560    30.0000
 SF-CAS             139:       -10.6722977142    23.3169    30.0000
 SF-CAS             140:       -10.6696926243    23.3878    30.0000
 SF-CAS             141:       -10.6669454994    23.4626    30.0000
 SF-CAS             142:       -10.6619256487    23.5992    30.0000
 SF-CAS             143:       -10.6582687837    23.6987    30.0000
 SF-CAS             144:       -10.6520777707    23.8672    30.0000
 ===================================================================

              Active Space Coefficients > 0.20
 -------------------------------------------------------------------
 State  1                       Configuration         Coeff.   <S^2>
 -------------------------------------------------------------------
                  11111111111_ | ___________1      -0.573537  31.000
                  1111111111_1 | __________1_      -0.330092  31.000
                  11111111_111 | ________1___      -0.263748  31.000
                  111111_11111 | ______1_____      -0.231956  31.000
                  11111_111111 | _____1______      -0.271339  31.000
                  1111_1111111 | ____1_______      -0.211975  31.000
                  11_111111111 | __1_________      -0.274686  31.000
 -------------------------------------------------------------------
 State  2                       Configuration         Coeff.   <S^2>
 -------------------------------------------------------------------
                  11111111111_ | ___________1      -0.346103  31.000
                  1111111111_1 | __________1_       0.552219  31.000
                  11111_111111 | _____1______       0.254390  31.000
                  111_11111111 | ___1________       0.297718  31.000
                  1_1111111111 | _1__________       0.284089  31.000
                  _11111111111 | 1___________       0.355907  31.000
 -------------------------------------------------------------------
 State  3                       Configuration         Coeff.   <S^2>
 -------------------------------------------------------------------
                  1111111111_1 | __________1_      -0.201000  31.000
                  111111111_11 | _________1__      -0.267838  31.000
                  11111_111111 | _____1______       0.571880  31.000
                  111_11111111 | ___1________      -0.419397  31.000
                  11_111111111 | __1_________      -0.240284  31.000
                  _11111111111 | 1___________       0.292797  31.000
 -------------------------------------------------------------------
 State  4                       Configuration         Coeff.   <S^2>
 -------------------------------------------------------------------
                  11111111111_ | ___________1       0.357587  31.000
                  11111111_111 | ________1___      -0.288524  31.000
                  1111_1111111 | ____1_______      -0.252727  31.000
                  11_111111111 | __1_________       0.300951  31.000
                  _11111111111 | 1___________       0.595972  31.000
 -------------------------------------------------------------------
 State  5                       Configuration         Coeff.   <S^2>
 -------------------------------------------------------------------
                  11111111111_ | ___________1      -0.203679  31.000
                  1111111111_1 | __________1_      -0.338502  31.000
                  111111111_11 | _________1__      -0.287360  31.000
                  11111_111111 | _____1______       0.250289  31.000
                  1111_1111111 | ____1_______       0.222849  31.000
                  111_11111111 | ___1________       0.572233  31.000
                  11_111111111 | __1_________       0.258400  31.000
 -------------------------------------------------------------------
 State  6                       Configuration         Coeff.   <S^2>
 -------------------------------------------------------------------
                  111111111_11 | _________1__      -0.657740  31.000
                  1111111_1111 | _______1____       0.396566  31.000
                  11111_111111 | _____1______      -0.301124  31.000
                  1111_1111111 | ____1_______      -0.225711  31.000
                  1_1111111111 | _1__________       0.279171  31.000
 -------------------------------------------------------------------
 State  7                       Configuration         Coeff.   <S^2>
 -------------------------------------------------------------------
                  11111111_111 | ________1___      -0.652384  31.000
                  1111_1111111 | ____1_______       0.625400  31.000
 -------------------------------------------------------------------
 State  8                       Configuration         Coeff.   <S^2>
 -------------------------------------------------------------------
                  1111111_1111 | _______1____      -0.620402  31.000
                  1_1111111111 | _1__________       0.611959  31.000
 -------------------------------------------------------------------
 State  9                       Configuration         Coeff.   <S^2>
 -------------------------------------------------------------------
                  111111_11111 | ______1_____       0.701946  31.000
                  11_111111111 | __1_________      -0.558799  31.000
 -------------------------------------------------------------------
 State  10                      Configuration         Coeff.   <S^2>
 -------------------------------------------------------------------
                  11111111111_ | ___________1       0.332684  31.000
                  11111111_111 | ________1___       0.349280  31.000
                  111111_11111 | ______1_____      -0.357105  31.000
                  11111_111111 | _____1______      -0.354461  31.000
                  1111_1111111 | ____1_______       0.351675  31.000
                  111_11111111 | ___1________       0.352004  31.000
                  11_111111111 | __1_________      -0.357176  31.000
                  _11111111111 | 1___________       0.366015  31.000
 -------------------------------------------------------------------
 State  11                      Configuration         Coeff.   <S^2>
 -------------------------------------------------------------------
                  11111111111_ | ___________1       0.206993  31.000
                  1111111111_1 | __________1_       0.393331  31.000
                  111111111_11 | _________1__      -0.409310  31.000
                  11111111_111 | ________1___      -0.201745  31.000
                  1111111_1111 | _______1____      -0.413147  31.000
                  111111_11111 | ______1_____      -0.212142  31.000
                  1111_1111111 | ____1_______      -0.201938  31.000
                  111_11111111 | ___1________       0.202814  31.000
                  11_111111111 | __1_________      -0.212314  31.000
                  1_1111111111 | _1__________      -0.414064  31.000
                  _11111111111 | 1___________      -0.201671  31.000
 -------------------------------------------------------------------
 State  12                      Configuration         Coeff.   <S^2>
 -------------------------------------------------------------------
                  11111111111_ | ___________1       0.288675  31.000
                  1111111111_1 | __________1_      -0.288675  31.000
                  111111111_11 | _________1__       0.288675  31.000
                  11111111_111 | ________1___      -0.288675  31.000
                  1111111_1111 | _______1____       0.288675  31.000
                  111111_11111 | ______1_____      -0.288675  31.000
                  11111_111111 | _____1______       0.288675  31.000
                  1111_1111111 | ____1_______      -0.288675  31.000
                  111_11111111 | ___1________       0.288675  31.000
                  11_111111111 | __1_________      -0.288675  31.000
                  1_1111111111 | _1__________       0.288675  31.000
                  _11111111111 | 1___________      -0.288675  31.000
 -------------------------------------------------------------------
 State  13                      Configuration         Coeff.   <S^2>
 -------------------------------------------------------------------
                  11111111111_ | __1_________       0.291285  30.000
                  11111111111_ | ___1________       0.293881  30.000
                  11111111111_ | ____1_______       0.247314  30.000
                  11111111111_ | _____1______       0.231701  30.000
                  11111111111_ | ______1_____      -0.292543  30.000
                  11111111111_ | ________1___       0.248678  30.000
                  _11111111111 | ____1_______       0.207646  30.000
                  _11111111111 | _____1______       0.255610  30.000
 -------------------------------------------------------------------
 State  14                      Configuration         Coeff.   <S^2>
 -------------------------------------------------------------------
                  1111111111_1 | _1__________      -0.269124  30.000
                  1111111111_1 | _______1____       0.265102  30.000
                  1111111111_1 | _________1__       0.284567  30.000
                  11111_111111 | 1___________       0.206928  30.000
                  11111_111111 | ____1_______      -0.222320  30.000
                  11111_111111 | ________1___      -0.221310  30.000
                  111_11111111 | ______1_____       0.200909  30.000
                  111_11111111 | ___________1       0.234416  30.000
 -------------------------------------------------------------------
 State  15                      Configuration         Coeff.   <S^2>
 -------------------------------------------------------------------
                  11111111111_ | ___1________       0.273312  30.000
                  11111_111111 | ____1_______       0.213365  30.000
                  11111_111111 | ________1___       0.213858  30.000
                  111_11111111 | ___________1       0.216229  30.000
                  11_111111111 | ___1________      -0.222171  30.000
                  11_111111111 | ______1_____       0.288322  30.000
                  _11111111111 | ____1_______      -0.300060  30.000
                  _11111111111 | _____1______      -0.262996  30.000
                  _11111111111 | ________1___      -0.298289  30.000
 -------------------------------------------------------------------
 State  16                      Configuration         Coeff.   <S^2>
 -------------------------------------------------------------------
                  111111_11111 | __1_________      -0.316108  30.000
                  111111_11111 | ___1________      -0.416552  30.000
                  111111_11111 | ______1_____      -0.259004  31.000
                  111111_11111 | ___________1       0.427396  30.000
                  11_111111111 | ___1________      -0.340649  30.000
                  11_111111111 | ___________1       0.365383  30.000
 -------------------------------------------------------------------
 State  17                      Configuration         Coeff.   <S^2>
 -------------------------------------------------------------------
                  111111111_11 | _______1____       0.216684  30.000
                  111111111_11 | __________1_       0.279614  30.000
                  111_11111111 | __1_________      -0.253445  30.000
                  111_11111111 | ______1_____       0.239660  30.000
                  111_11111111 | ___________1       0.227852  30.000
                  1_1111111111 | _______1____       0.307417  30.000
                  1_1111111111 | _________1__       0.215705  30.000
                  1_1111111111 | __________1_       0.263050  30.000
 -------------------------------------------------------------------
 State  18                      Configuration         Coeff.   <S^2>
 -------------------------------------------------------------------
                  11111111_111 | ____1_______      -0.244015  30.000
                  11111_111111 | 1___________       0.329953  30.000
                  11111_111111 | ____1_______      -0.289670  30.000
                  11111_111111 | _____1______       0.200358  31.000
                  11111_111111 | ________1___      -0.270428  30.000
                  1111_1111111 | ________1___      -0.204116  30.000
                  1_1111111111 | _______1____       0.254943  30.000
                  1_1111111111 | _________1__       0.256947  30.000
                  1_1111111111 | __________1_       0.222635  30.000
 -------------------------------------------------------------------
 State  19                      Configuration         Coeff.   <S^2>
 -------------------------------------------------------------------
                  1111111111_1 | _1__________      -0.243455  30.000
                  1111111111_1 | _______1____       0.290888  30.000
                  111111111_11 | _1__________      -0.404869  30.000
                  111111111_11 | _______1____       0.356826  30.000
                  111111111_11 | _________1__      -0.248098  31.000
                  111111111_11 | __________1_       0.345600  30.000
                  1111111_1111 | __________1_      -0.249347  30.000
 -------------------------------------------------------------------
 State  20                      Configuration         Coeff.   <S^2>
 -------------------------------------------------------------------
                  1111111111_1 | _1__________      -0.262596  30.000
                  1111111_1111 | _1__________      -0.354301  30.000
                  1111111_1111 | _______1____      -0.258609  31.000
                  1111111_1111 | _________1__       0.421111  30.000
                  1111111_1111 | __________1_       0.381287  30.000
                  1_1111111111 | _________1__       0.229998  30.000
                  1_1111111111 | __________1_       0.294873  30.000
 -------------------------------------------------------------------
 State  21                      Configuration         Coeff.   <S^2>
 -------------------------------------------------------------------
                  11111111_111 | 1___________      -0.377329  30.000
                  11111111_111 | ____1_______       0.242673  30.000
                  11111111_111 | _____1______       0.394284  30.000
                  11111111_111 | ________1___      -0.223697  31.000
                  1111_1111111 | 1___________       0.409003  30.000
                  1111_1111111 | ____1_______       0.250291  31.000
                  1111_1111111 | _____1______      -0.418723  30.000
                  1111_1111111 | ________1___      -0.300198  30.000
 -------------------------------------------------------------------
 State  22                      Configuration         Coeff.   <S^2>
 -------------------------------------------------------------------
                  11111111111_ | 1___________       0.269163  30.000
                  11111111111_ | ____1_______      -0.337273  30.000
                  11111111111_ | _____1______      -0.321937  30.000
                  11111111111_ | ________1___      -0.342755  30.000
 -------------------------------------------------------------------
 State  23                      Configuration         Coeff.   <S^2>
 -------------------------------------------------------------------
                  1111111111_1 | __1_________       0.235134  30.000
                  1111111111_1 | ___1________       0.306385  30.000
                  1111111111_1 | ______1_____      -0.248815  30.000
                  1111111111_1 | ___________1      -0.309566  30.000
                  11111_111111 | ___________1      -0.219629  30.000
 -------------------------------------------------------------------
 State  24                      Configuration         Coeff.   <S^2>
 -------------------------------------------------------------------
                  1111111111_1 | _____1______       0.223966  30.000
                  11111_111111 | _1__________       0.210212  30.000
                  11111_111111 | _______1____      -0.220127  30.000
                  11111_111111 | _________1__      -0.256562  30.000
                  11111_111111 | __________1_      -0.297641  30.000
                  111_11111111 | __________1_      -0.235303  30.000
 -------------------------------------------------------------------
 State  25                      Configuration         Coeff.   <S^2>
 -------------------------------------------------------------------
                  11111111_111 | __1_________       0.304530  30.000
                  11111111_111 | ___1________       0.310632  30.000
                  11111111_111 | ______1_____      -0.317415  30.000
                  11111111_111 | ___________1      -0.442150  30.000
                  1111_1111111 | __1_________      -0.295751  30.000
                  1111_1111111 | ___1________      -0.296366  30.000
                  1111_1111111 | ______1_____       0.284454  30.000
                  1111_1111111 | ___________1       0.409015  30.000
 -------------------------------------------------------------------
 State  26                      Configuration         Coeff.   <S^2>
 -------------------------------------------------------------------
                  11111111111_ | __________1_      -0.210797  30.000
                  11111_111111 | _1__________      -0.222471  30.000
                  11111_111111 | _______1____       0.229646  30.000
                  11111_111111 | _________1__       0.273075  30.000
                  11111_111111 | __________1_       0.301209  30.000
                  111_11111111 | _1__________       0.231450  30.000
                  111_11111111 | _______1____      -0.257981  30.000
                  111_11111111 | _________1__      -0.227232  30.000
                  111_11111111 | __________1_      -0.327172  30.000
 -------------------------------------------------------------------
 State  27                      Configuration         Coeff.   <S^2>
 -------------------------------------------------------------------
                  1111111111_1 | 1___________      -0.241141  30.000
                  1111111111_1 | ____1_______       0.253612  30.000
                  1111111111_1 | _____1______       0.332849  30.000
                  1111111111_1 | ________1___       0.262876  30.000
                  111111111_11 | _____1______       0.238239  30.000
 -------------------------------------------------------------------
 State  28                      Configuration         Coeff.   <S^2>
 -------------------------------------------------------------------
                  11111_111111 | __1_________      -0.206219  30.000
                  11111_111111 | ___1________      -0.203971  30.000
                  11111_111111 | ______1_____       0.206030  30.000
                  11111_111111 | ___________1       0.277118  30.000
                  1111_1111111 | ___________1       0.254779  30.000
 -------------------------------------------------------------------
 State  29                      Configuration         Coeff.   <S^2>
 -------------------------------------------------------------------
                  11111111111_ | _1__________      -0.207919  30.000
                  11111111111_ | _______1____       0.221660  30.000
                  11111111111_ | _________1__       0.214664  30.000
                  11111111111_ | __________1_       0.281075  30.000
                  111111_11111 | _______1____       0.202353  30.000
                  111111_11111 | __________1_       0.245596  30.000
                  111_11111111 | __________1_      -0.233147  30.000
 -------------------------------------------------------------------
 State  30                      Configuration         Coeff.   <S^2>
 -------------------------------------------------------------------
                  111111111_11 | 1___________       0.247591  30.000
                  111111111_11 | ____1_______      -0.266425  30.000
                  111111111_11 | _____1______      -0.348992  30.000
                  111111111_11 | ________1___      -0.266423  30.000
                  111111111_11 | ___________1      -0.200307  30.000
                  1111111_1111 | ____1_______       0.225012  30.000
                  1111111_1111 | _____1______       0.264629  30.000
                  1111111_1111 | ________1___       0.222923  30.000
                  1111111_1111 | ___________1       0.200187  30.000
 -------------------------------------------------------------------
 State  31                      Configuration         Coeff.   <S^2>
 -------------------------------------------------------------------
                  1111111_1111 | __1_________       0.278177  30.000
                  1111111_1111 | ___1________       0.350461  30.000
                  1111111_1111 | ______1_____      -0.279855  30.000
                  1111111_1111 | ___________1      -0.318471  30.000
                  1_1111111111 | __1_________       0.230476  30.000
                  1_1111111111 | ___1________       0.280402  30.000
                  1_1111111111 | _____1______      -0.215750  30.000
                  1_1111111111 | ______1_____      -0.240782  30.000
                  1_1111111111 | ___________1      -0.297374  30.000
 -------------------------------------------------------------------
 State  32                      Configuration         Coeff.   <S^2>
 -------------------------------------------------------------------
                  111111_11111 | 1___________      -0.295617  30.000
                  111111_11111 | ____1_______       0.343098  30.000
                  111111_11111 | _____1______       0.342225  30.000
                  111111_11111 | ________1___       0.362404  30.000
                  11_111111111 | 1___________      -0.260623  30.000
                  11_111111111 | ____1_______       0.315697  30.000
                  11_111111111 | _____1______       0.303908  30.000
                  11_111111111 | ________1___       0.308004  30.000
 -------------------------------------------------------------------
 State  33                      Configuration         Coeff.   <S^2>
 -------------------------------------------------------------------
                  _11111111111 | __1_________      -0.308734  30.000
                  _11111111111 | ___1________      -0.317534  30.000
                  _11111111111 | ______1_____       0.309920  30.000
                  _11111111111 | ___________1       0.369108  30.000
 -------------------------------------------------------------------
 State  34                      Configuration         Coeff.   <S^2>
 -------------------------------------------------------------------
                  11111111_111 | _1__________      -0.304374  30.000
                  11111111_111 | _______1____       0.307625  30.000
                  11111111_111 | _________1__       0.336286  30.000
                  11111111_111 | __________1_       0.370364  30.000
                  1111_1111111 | _1__________       0.304051  30.000
                  1111_1111111 | _______1____      -0.319457  30.000
                  1111_1111111 | _________1__      -0.342945  30.000
                  1111_1111111 | __________1_      -0.366191  30.000
 -------------------------------------------------------------------
 State  35                      Configuration         Coeff.   <S^2>
 -------------------------------------------------------------------
                  111_11111111 | 1___________       0.264637  30.000
                  111_11111111 | ____1_______      -0.314861  30.000
                  111_11111111 | _____1______      -0.301962  30.000
                  111_11111111 | ________1___      -0.312776  30.000
 -------------------------------------------------------------------
 State  36                      Configuration         Coeff.   <S^2>
 -------------------------------------------------------------------
                  111111_11111 | _1__________      -0.308194  30.000
                  111111_11111 | _______1____       0.318842  30.000
                  111111_11111 | _________1__       0.297287  30.000
                  111111_11111 | __________1_       0.361338  30.000
                  11_111111111 | _1__________      -0.310470  30.000
                  11_111111111 | _______1____       0.332413  30.000
                  11_111111111 | _________1__       0.305562  30.000
                  11_111111111 | __________1_       0.357513  30.000
 -------------------------------------------------------------------
 State  37                      Configuration         Coeff.   <S^2>
 -------------------------------------------------------------------
                  111111111_11 | __1_________      -0.245491  30.000
                  111111111_11 | ___1________      -0.286864  30.000
                  111111111_11 | ______1_____       0.250131  30.000
                  111111111_11 | ___________1       0.260654  30.000
                  1111111_1111 | 1___________      -0.223457  30.000
                  1111111_1111 | ____1_______       0.226333  30.000
                  1111111_1111 | _____1______       0.265030  30.000
                  1111111_1111 | ________1___       0.221526  30.000
 -------------------------------------------------------------------
 State  38                      Configuration         Coeff.   <S^2>
 -------------------------------------------------------------------
                  1111111_1111 | _____1______       0.219921  30.000
                  1_1111111111 | 1___________      -0.275876  30.000
                  1_1111111111 | __1_________       0.223154  30.000
                  1_1111111111 | ___1________       0.271513  30.000
                  1_1111111111 | ____1_______       0.267453  30.000
                  1_1111111111 | _____1______       0.322642  30.000
                  1_1111111111 | ______1_____      -0.233551  30.000
                  1_1111111111 | ________1___       0.271577  30.000
 -------------------------------------------------------------------
 State  39                      Configuration         Coeff.   <S^2>
 -------------------------------------------------------------------
                  11111111111_ | __________1_      -0.221762  30.000
                  _11111111111 | _1__________      -0.299496  30.000
                  _11111111111 | _______1____       0.303813  30.000
                  _11111111111 | _________1__       0.344088  30.000
                  _11111111111 | __________1_       0.340359  30.000
 -------------------------------------------------------------------
 State  40                      Configuration         Coeff.   <S^2>
 -------------------------------------------------------------------
                  11111111_111 | 1___________      -0.222715  30.000
                  11111111_111 | ____1_______      -0.383317  30.000
                  11111_111111 | 1___________      -0.437589  30.000
                  11111_111111 | ____1_______      -0.212770  30.000
                  11111_111111 | ________1___      -0.254897  30.000
                  1111_1111111 | 1___________      -0.240866  30.000
                  1111_1111111 | ________1___      -0.354975  30.000
                  _11111111111 | _____1______       0.286684  30.000
 -------------------------------------------------------------------
 State  41                      Configuration         Coeff.   <S^2>
 -------------------------------------------------------------------
                  1111111111_1 | _______1____       0.319236  30.000
                  1111111111_1 | _________1__      -0.442591  30.000
                  111111111_11 | __________1_       0.252098  30.000
                  1111111_1111 | _1__________      -0.317451  30.000
                  1_1111111111 | _______1____      -0.372457  30.000
                  1_1111111111 | _________1__       0.290514  30.000
 -------------------------------------------------------------------
 State  42                      Configuration         Coeff.   <S^2>
 -------------------------------------------------------------------
                  11111111111_ | __1_________       0.207099  30.000
                  11111111111_ | ___1________      -0.383015  30.000
                  11111111111_ | ______1_____      -0.230122  30.000
                  1111111111_1 | _1__________       0.344825  30.000
                  111111111_11 | _______1____       0.302903  30.000
                  1111111_1111 | _________1__       0.267191  30.000
                  111111_11111 | __1_________       0.256674  30.000
                  111111_11111 | ___1________      -0.204941  30.000
                  11_111111111 | ___1________       0.226461  30.000
                  11_111111111 | ______1_____       0.271613  30.000
                  1_1111111111 | __________1_      -0.213593  30.000
 -------------------------------------------------------------------
 State  43                      Configuration         Coeff.   <S^2>
 -------------------------------------------------------------------
                  11111111_111 | 1___________      -0.313238  30.000
                  11111111_111 | _____1______      -0.265205  30.000
                  11111_111111 | ____1_______      -0.426641  30.000
                  11111_111111 | ________1___       0.383096  30.000
                  1111_1111111 | 1___________       0.271027  30.000
                  1111_1111111 | _____1______       0.254049  30.000
                  _11111111111 | ____1_______       0.369913  30.000
                  _11111111111 | ________1___      -0.359353  30.000
 -------------------------------------------------------------------
 State  44                      Configuration         Coeff.   <S^2>
 -------------------------------------------------------------------
                  11111111111_ | ___1________      -0.286470  30.000
                  1111111111_1 | _1__________      -0.365354  30.000
                  1111111111_1 | _______1____      -0.379144  30.000
                  111111111_11 | _1__________      -0.341092  30.000
                  111111111_11 | _______1____      -0.296679  30.000
                  1111111_1111 | _________1__      -0.227750  30.000
                  1111111_1111 | __________1_       0.209001  30.000
                  111111_11111 | __1_________       0.210138  30.000
                  1_1111111111 | _________1__      -0.253018  30.000
 -------------------------------------------------------------------
 State  45                      Configuration         Coeff.   <S^2>
 -------------------------------------------------------------------
                  11111111111_ | __1_________      -0.453362  30.000
                  11111111111_ | ______1_____      -0.484427  30.000
                  111111_11111 | ___1________       0.226056  30.000
                  111_11111111 | __1_________      -0.382553  30.000
                  111_11111111 | ______1_____      -0.368095  30.000
                  11_111111111 | ___1________       0.256533  30.000
 -------------------------------------------------------------------
 State  46                      Configuration         Coeff.   <S^2>
[...]
   697     3250.47887998    31255.05062663        6.00000000      cm-1
   698     3260.08335915    31264.65510580       20.00000000      cm-1
   699     3261.70656536    31266.27831201       12.00000000      cm-1
   700     3263.86810996    31268.43985661        6.00000000      cm-1
   701     3269.38198049    31273.95372715       12.00000000      cm-1
   702     3269.95571027    31274.52745693        2.00000000      cm-1
   703     3270.51916763    31275.09091428        6.00000000      cm-1
   704     3274.91837047    31279.49011713        6.00000000      cm-1
   705     3278.01369543    31282.58544209       12.00000000      cm-1
   706     3279.10045951    31283.67220616        6.00000000      cm-1
   707     3281.73568001    31286.30742667        6.00000000      cm-1
   708     3283.25546888    31287.82721553       12.00000000      cm-1
   709     3285.34462778    31289.91637444        2.00000000      cm-1
   710     3287.63724100    31292.20898766       12.00000000      cm-1
   711     3291.23721715    31295.80896380       12.00000000      cm-1
   712     3292.62617843    31297.19792509        6.00000000      cm-1
   713     3296.10211232    31300.67385897        0.00000000      cm-1
   714     3303.72421136    31308.29595801        2.00000000      cm-1
   715     3303.91233858    31308.48408523       12.00000000      cm-1
   716     3312.30654645    31316.87829311       12.00000000      cm-1
   717     3313.88612329    31318.45786995       20.00000000      cm-1
   718     3314.48448674    31319.05623339        6.00000000      cm-1
   719     3317.02197055    31321.59371721       12.00000000      cm-1
   720     3325.78096414    31330.35271080        6.00000000      cm-1
   721     3332.92213363    31337.49388029        2.00000000      cm-1
   722     3334.73069649    31339.30244314       20.00000000      cm-1
   723     3336.70432724    31341.27607389        0.00000000      cm-1
   724     3337.13421103    31341.70595768        2.00000000      cm-1
   725     3337.76541097    31342.33715763       12.00000000      cm-1
   726     3345.54410424    31350.11585089        6.00000000      cm-1
   727     3345.54603591    31350.11778256       20.00000000      cm-1
   728     3346.61129166    31351.18303831        0.00000000      cm-1
   729     3348.14694182    31352.71868848       12.00000000      cm-1
   730     3349.52800700    31354.09975365       20.00000000      cm-1
   731     3350.98543056    31355.55717721        6.00000000      cm-1
   732     3353.10284193    31357.67458858        6.00000000      cm-1
   733     3355.47546502    31360.04721167        2.00000000      cm-1
   734     3355.63066751    31360.20241417       12.00000000      cm-1
   735     3367.56642322    31372.13816988        6.00000000      cm-1
   736     3375.88938609    31380.46113274        6.00000000      cm-1
   737     3383.80425305    31388.37599971       20.00000000      cm-1
   738     3389.14675860    31393.71850526       12.00000000      cm-1
   739     3393.33572608    31397.90747274       12.00000000      cm-1
   740     3400.87557201    31405.44731866       12.00000000      cm-1
   741     3403.73959876    31408.31134542        6.00000000      cm-1
   742     3403.85411571    31408.42586237       20.00000000      cm-1
   743     3409.01983926    31413.59158591       20.00000000      cm-1
   744     3412.48780199    31417.05954864        6.00000000      cm-1
   745     3414.17760672    31418.74935338       20.00000000      cm-1
   746     3418.46633162    31423.03807827       12.00000000      cm-1
   747     3422.11520151    31426.68694816       20.00000000      cm-1
   748     3422.67870861    31427.25045526       12.00000000      cm-1
   749     3455.23388641    31459.80563307       20.00000000      cm-1
   750     3467.14840402    31471.72015067       20.00000000      cm-1
   751     3480.47321233    31485.04495899       12.00000000      cm-1
   752     3481.43699544    31486.00874209        6.00000000      cm-1
   753     3485.84301617    31490.41476283       20.00000000      cm-1
   754     3491.43298585    31496.00473251       20.00000000      cm-1
   755     3510.20937210    31514.78111876       20.00000000      cm-1
   756     3546.72675756    31551.29850421       20.00000000      cm-1
   757     3547.42275468    31551.99450133       20.00000000      cm-1
   758     8728.60036995    36733.17211660        0.00000000      cm-1
   759     8790.93233523    36795.50408188        2.00000000      cm-1
   760     8890.04028350    36894.61203016       -0.00000000      cm-1
   761     8913.93309757    36918.50484422        6.00000000      cm-1
   762     8923.98193488    36928.55368153       -0.00000000      cm-1
   763     8925.66022998    36930.23197663        2.00000000      cm-1
   764     8948.66798715    36953.23973381       -0.00000000      cm-1
   765     8961.89665661    36966.46840326        2.00000000      cm-1
   766     8996.26774364    37000.83949029        6.00000000      cm-1
   767     9011.43988836    37016.01163502        2.00000000      cm-1
   768     9037.10746769    37041.67921435        6.00000000      cm-1
   769     9094.48114219    37099.05288884       12.00000000      cm-1
   770     9100.65345883    37105.22520549       12.00000000      cm-1
   771     9118.99638533    37123.56813198        0.00000000      cm-1
   772     9122.31980731    37126.89155396        0.00000000      cm-1
   773     9135.32305035    37139.89479700        6.00000000      cm-1
   774     9148.42358741    37152.99533407       12.00000000      cm-1
   775     9156.61793438    37161.18968104        2.00000000      cm-1
   776     9158.57023740    37163.14198405        2.00000000      cm-1
   777     9230.49006447    37235.06181112        6.00000000      cm-1
   778     9231.22332346    37235.79507011        6.00000000      cm-1
   779     9237.12314068    37241.69488734       20.00000000      cm-1
   780     9294.16803373    37298.73978039       20.00000000      cm-1
   781     9317.20098091    37321.77272756       12.00000000      cm-1
   782     9328.35524282    37332.92698948       20.00000000      cm-1
   783     9336.96432943    37341.53607608       12.00000000      cm-1
   784     9341.58593174    37346.15767840       12.00000000      cm-1
   785     9476.42137287    37480.99311953       20.00000000      cm-1
   786     9485.98788636    37490.55963301       20.00000000      cm-1
   787     9552.85333447    37557.42508113       20.00000000      cm-1
   788    14723.67923805    42728.25098470        2.00000000      cm-1
   789    14796.48317233    42801.05491898        6.00000000      cm-1
   790    14804.45249639    42809.02424304        2.00000000      cm-1
   791    14848.97231567    42853.54406232       -0.00000000      cm-1
   792    14854.00303435    42858.57478101        2.00000000      cm-1
   793    14883.70166766    42888.27341431       -0.00000000      cm-1
   794    14884.10844298    42888.68018963        2.00000000      cm-1
   795    14892.37073807    42896.94248473        6.00000000      cm-1
   796    14896.20987552    42900.78162217       12.00000000      cm-1
   797    14916.07605046    42920.64779712        2.00000000      cm-1
   798    14918.48483043    42923.05657709        6.00000000      cm-1
   799    14923.22683950    42927.79858615       -0.00000000      cm-1
   800    14945.58420268    42950.15594934        2.00000000      cm-1
   801    14947.85659030    42952.42833695        2.00000000      cm-1
   802    14967.09146997    42971.66321662        6.00000000      cm-1
   803    14973.11604725    42977.68779390        2.00000000      cm-1
   804    14982.16882768    42986.74057433        2.00000000      cm-1
   805    14987.15591520    42991.72766186        2.00000000      cm-1
   806    14987.76355165    42992.33529830       -0.00000000      cm-1
   807    14994.82632018    42999.39806684        2.00000000      cm-1
   808    14999.99141578    43004.56316244        6.00000000      cm-1
   809    15004.62454628    43009.19629294       12.00000000      cm-1
   810    15023.63983377    43028.21158042        2.00000000      cm-1
   811    15026.21045632    43030.78220298        6.00000000      cm-1
   812    15041.55470788    43046.12645454        0.00000000      cm-1
   813    15043.22340747    43047.79515412       12.00000000      cm-1
   814    15054.65770133    43059.22944798        6.00000000      cm-1
   815    15054.84969440    43059.42144106        2.00000000      cm-1
   816    15064.37836140    43068.95010805       12.00000000      cm-1
   817    15067.05156831    43071.62331496        6.00000000      cm-1
   818    15090.76906048    43095.34080714        2.00000000      cm-1
   819    15096.36560752    43100.93735418       12.00000000      cm-1
   820    15098.55168017    43103.12342683        6.00000000      cm-1
   821    15103.45268164    43108.02442830        6.00000000      cm-1
   822    15110.78933473    43115.36108138        6.00000000      cm-1
   823    15126.36487829    43130.93662495        2.00000000      cm-1
   824    15127.20879396    43131.78054061        6.00000000      cm-1
   825    15140.67234529    43145.24409194        6.00000000      cm-1
   826    15142.24706818    43146.81881484        2.00000000      cm-1
   827    15143.38321848    43147.95496514        0.00000000      cm-1
   828    15165.46859133    43170.04033799       12.00000000      cm-1
   829    15168.03646440    43172.60821105       12.00000000      cm-1
   830    15171.54103657    43176.11278322        6.00000000      cm-1
   831    15181.65722156    43186.22896822       20.00000000      cm-1
   832    15187.85128619    43192.42303284        2.00000000      cm-1
   833    15189.67930680    43194.25105345       -0.00000000      cm-1
   834    15197.68617775    43202.25792441        2.00000000      cm-1
   835    15203.17212210    43207.74386875        2.00000000      cm-1
   836    15212.94360023    43217.51534689        6.00000000      cm-1
   837    15219.29476398    43223.86651063        2.00000000      cm-1
   838    15223.01668526    43227.58843192       20.00000000      cm-1
   839    15230.05920523    43234.63095189        6.00000000      cm-1
   840    15243.96525490    43248.53700155       12.00000000      cm-1
   841    15251.86575282    43256.43749947       12.00000000      cm-1
   842    15256.09682099    43260.66856764       20.00000000      cm-1
   843    15269.86765227    43274.43939893        6.00000000      cm-1
   844    15281.73112397    43286.30287063       12.00000000      cm-1
   845    15284.86116947    43289.43291612        6.00000000      cm-1
   846    15285.47075735    43290.04250400       12.00000000      cm-1
   847    15288.77680545    43293.34855211       12.00000000      cm-1
   848    15294.73015837    43299.30190503        0.00000000      cm-1
   849    15298.55095308    43303.12269974        2.00000000      cm-1
   850    15300.85017638    43305.42192303       12.00000000      cm-1
   851    15307.49842722    43312.07017387       12.00000000      cm-1
   852    15317.37990171    43321.95164836        2.00000000      cm-1
   853    15321.12508072    43325.69682738        6.00000000      cm-1
   854    15323.90834771    43328.48009437        6.00000000      cm-1
   855    15326.01805633    43330.58980298        0.00000000      cm-1
   856    15354.28216440    43358.85391105        2.00000000      cm-1
   857    15356.19037211    43360.76211877       12.00000000      cm-1
   858    15361.13321775    43365.70496440       12.00000000      cm-1
   859    15363.41861025    43367.99035691        6.00000000      cm-1
   860    15375.93107140    43380.50281805       20.00000000      cm-1
   861    15386.29699230    43390.86873896       30.00000000      cm-1
   862    15397.19766269    43401.76940934        2.00000000      cm-1
   863    15397.82176583    43402.39351248       12.00000000      cm-1
   864    15416.85108461    43421.42283126       12.00000000      cm-1
   865    15419.64934667    43424.22109333        2.00000000      cm-1
   866    15419.80054277    43424.37228943        6.00000000      cm-1
   867    15422.11176071    43426.68350737       20.00000000      cm-1
   868    15431.62486310    43436.19660975       12.00000000      cm-1
   869    15455.50895123    43460.08069789        6.00000000      cm-1
   870    15455.89220609    43460.46395274       20.00000000      cm-1
   871    15470.72658528    43475.29833193       12.00000000      cm-1
   872    15474.33573178    43478.90747843        2.00000000      cm-1
   873    15491.20763081    43495.77937746        6.00000000      cm-1
   874    15494.21164900    43498.78339566        2.00000000      cm-1
   875    15495.07456301    43499.64630967       20.00000000      cm-1
   876    15495.69493804    43500.26668469       30.00000000      cm-1
   877    15499.55839466    43504.13014132       12.00000000      cm-1
   878    15511.31479802    43515.88654468        6.00000000      cm-1
   879    15516.01856250    43520.59030916       20.00000000      cm-1
   880    15524.40198066    43528.97372731        6.00000000      cm-1
   881    15526.84728826    43531.41903492       20.00000000      cm-1
   882    15531.17015525    43535.74190191       12.00000000      cm-1
   883    15545.05749208    43549.62923873       20.00000000      cm-1
   884    15553.52867468    43558.10042134        6.00000000      cm-1
   885    15567.05362859    43571.62537525       20.00000000      cm-1
   886    15568.22182807    43572.79357472       12.00000000      cm-1
   887    15580.56976892    43585.14151557       12.00000000      cm-1
   888    15584.32589311    43588.89763977       20.00000000      cm-1
   889    15602.34782884    43606.91957550       20.00000000      cm-1
   890    15627.65285030    43632.22459695       12.00000000      cm-1
   891    15638.96724911    43643.53899576       20.00000000      cm-1
   892    15640.88264028    43645.45438693       12.00000000      cm-1
   893    15653.13972205    43657.71146870       20.00000000      cm-1
   894    15666.72675231    43671.29849897       20.00000000      cm-1
   895    15677.81522879    43682.38697545       30.00000000      cm-1
   896    15728.23322478    43732.80497143       12.00000000      cm-1
   897    15737.15461965    43741.72636630       20.00000000      cm-1
   898    15743.26879831    43747.84054496       20.00000000      cm-1
   899    15751.50264306    43756.07438972       30.00000000      cm-1
   900    15811.12543211    43815.69717876       30.00000000      cm-1
   901    15814.81234359    43819.38409025       30.00000000      cm-1
   902    15842.71208796    43847.28383461       30.00000000      cm-1
   903    15869.12156552    43873.69331217       30.00000000      cm-1
   904    15881.03101219    43885.60275885       30.00000000      cm-1
   905    27265.11432400    55269.68607065        2.00000000      cm-1
   906    27282.41190232    55286.98364898       -0.00000000      cm-1
   907    27307.75975795    55312.33150461        6.00000000      cm-1
   908    27318.21723047    55322.78897713        2.00000000      cm-1
   909    27335.03329583    55339.60504248        6.00000000      cm-1
   910    27389.71932938    55394.29107603        6.00000000      cm-1
   911    27393.21177462    55397.78352127        2.00000000      cm-1
   912    27442.48413150    55447.05587815       12.00000000      cm-1
   913    27465.96442438    55470.53617104        6.00000000      cm-1
   914    27496.63881632    55501.21056297       12.00000000      cm-1
   915    27557.91737083    55562.48911748        6.00000000      cm-1
   916    27574.24470950    55578.81645616       12.00000000      cm-1
   917    27638.62247960    55643.19422625       20.00000000      cm-1
   918    27668.39630997    55672.96805663       12.00000000      cm-1
   919    27717.07635237    55721.64809902       20.00000000      cm-1
   920    27813.68766333    55818.25940999       20.00000000      cm-1
   921    27893.24397142    55897.81571808       30.00000000      cm-1
   922    27992.22506645    55996.79681310       30.00000000      cm-1
   923    28202.22589735    56206.79764400       42.00000000      cm-1
 Analysis of SCF Wavefunction

 --------------------------------------------------------------

                    Orbital Energies (a.u.)
 --------------------------------------------------------------

 Alpha MOs
 -- Occupied --
 -0.914  -0.914  -0.516  -0.516  -0.515  -0.516  -0.516  -0.518
 -0.516  -0.516  -0.515  -0.516  -0.517  -0.515
 -- Virtual --
  0.957   0.925   1.036   0.978   0.816   1.074   1.036   1.014
  1.122   1.259   1.022   1.097   1.031   1.034

 Beta MOs
 -- Occupied --
 -0.914  -0.914
 -- Virtual --
  0.147   0.148   0.148   0.147   0.147   0.148   0.148   0.147
  0.148   0.147   0.149   0.149   1.113   1.093   1.174   1.144
  0.997   1.207   1.176   1.177   1.239   1.315   1.187   1.225
  1.199   1.198
 --------------------------------------------------------------

          Ground-State Mulliken Net Atomic Charges

     Atom                 Charge (a.u.)
  ----------------------------------------
      1 H                     0.000078
      2 H                     0.000022
      3 H                    -0.000015
      4 H                     0.000003
      5 H                    -0.000025
      6 H                     0.000019
      7 H                     0.000023
      8 H                    -0.000024
      9 H                     0.000069
     10 H                     0.000000
     11 H                    -0.000075
     12 H                    -0.000075
     13 He                    0.000000
     14 He                   -0.000000
  ----------------------------------------
  Sum of atomic charges =    -0.000000

 -----------------------------------------------------------------
                    Cartesian Multipole Moments
 -----------------------------------------------------------------
    Charge (ESU x 10^10)
                -0.0000
    Dipole Moment (Debye)
         X      -0.0002      Y      -0.0005      Z       0.0003
       Tot       0.0006
    Quadrupole Moments (Debye-Ang)
        XX     -19.6292     XY       0.0156     YY     -19.5585
        XZ      -0.0003     YZ      -0.0125     ZZ     -19.5119
    Octopole Moments (Debye-Ang^2)
       XXX     -19.5195    XXY     -34.5453    XYY      -4.8453
       YYY    -106.4739    XXZ     -22.9102    XYZ      -0.0123
       YYZ     -23.8277    XZZ      -4.1116    YZZ     -34.4884
       ZZZ     -70.7096
    Hexadecapole Moments (Debye-Ang^3)
      XXXX   -1642.6860   XXXY     -11.7155   XXYY    -566.8327
      XYYY     -10.0507   YYYY   -1743.7728   XXXZ       3.4243
      XXYZ    -214.3479   XYYZ       0.0739   YYYZ    -652.0326
      XXZZ    -491.0272   XYZZ      -3.2152   YYZZ    -516.6385
      XZZZ       4.4616   YZZZ    -646.9881   ZZZZ   -1318.2269
 -----------------------------------------------------------------
 JobOver = TRUE
Archival summary:
1\1\sinatra\SP\ROProcedureUnspecified\6-31G*\e212()\nmayhall\MonMar2016:11:022017MonMar2016:11:022017\0\\#,ROProcedureUnspecified,6-31G*,\\0,13\H\H,1,1.8108\H,2,1.8111,1,60.0291\H,3,1.81133,2,60.0389,1,70.5227,0\H,1,2.837,2,152.386,3,178.05,0\H,5,1.8112,1,73.0863,2,-68.5028,0\H,6,1.81121,5,60.0005,1,-92.9521,0\H,7,1.81039,6,60.0315,5,-70.571,0\H,7,2.94954,6,120.791,5,94.8587,0\H,9,1.81065,7,134.672,6,162.907,0\H,9,1.81086,7,80.4514,6,134.345,0\H,10,1.81131,9,60.0237,7,-103.482,0\He,10,14.4259,9,124.411,7,34.7501,0\He,10,14.6576,9,124.542,7,147.808,0\\HF=-11.4707778\\@

 Total job time:  0.51s(wall), 0.51s(cpu) 
 Mon Mar 20 16:11:02 2017

        *************************************************************
        *                                                           *
        *  Thank you very much for using Q-Chem.  Have a nice day.  *
        *                                                           *
        *************************************************************


*** MISSION COMPLETED -- STARFLEET OUT ***

