Jobname.Temp
SP        RO                            6-31G(d)            
Number of atoms                            I               14
Charge                                     I                0
Multiplicity                               I               13
Number of electrons                        I               16
Number of alpha electrons                  I               14
Number of beta electrons                   I                2
Atomic numbers                             I   N=          14
           1           1           1           1           1           1
           1           1           1           1           1           1
           2           2
Current cartesian coordinates              R   N=          42
 -1.39563833E+00 -1.02168043E+00  1.62062912E-01 -4.37169242E+00 -1.92275854E+00
 -1.26643776E+00 -3.96052581E+00  1.23869658E+00 -2.16562614E-02 -4.17712622E+00
 -1.42555270E+00  2.11639877E+00  2.79063416E+00  6.93913102E+00  1.85722284E-01
  3.18418852E-01  8.05064903E+00  2.27798925E+00  3.45574216E-01  4.79007778E+00
  1.24094535E+00 -4.09806007E-01  7.28542334E+00 -9.77800989E-01  6.59230959E+00
 -1.65451191E+00 -1.14970937E-01  4.33973715E+00  9.17991157E-01 -3.60937690E-03
  3.66531279E+00 -2.01588424E+00  1.62501329E+00  3.62048849E+00 -1.90796198E+00
 -1.79565556E+00  1.88972612E+01  1.88972612E+01  1.88972612E+01 -1.88972612E+01
  1.88972612E+01  1.88972612E+01
Nuclear charges                            R   N=          14
  1.00000000E+00  1.00000000E+00  1.00000000E+00  1.00000000E+00  1.00000000E+00
  1.00000000E+00  1.00000000E+00  1.00000000E+00  1.00000000E+00  1.00000000E+00
  1.00000000E+00  1.00000000E+00  2.00000000E+00  2.00000000E+00
Number of basis functions                  I               28
Number of contracted shells                I               28
Number of primitive shells                 I               56
Highest angular momentum                   I                0
Largest degree of contraction              I                3
Shell types                                I   N=          28
           0           0           0           0           0           0
           0           0           0           0           0           0
           0           0           0           0           0           0
           0           0           0           0           0           0
           0           0           0           0
Number of primitives per shell             I   N=          28
           3           1           3           1           3           1
           3           1           3           1           3           1
           3           1           3           1           3           1
           3           1           3           1           3           1
           3           1           3           1
Shell to atom map                          I   N=          28
           1           1           2           2           3           3
           4           4           5           5           6           6
           7           7           8           8           9           9
          10          10          11          11          12          12
          13          13          14          14
Primitive exponents                        R   N=          56
  1.87311370E+01  2.82539370E+00  6.40121700E-01  1.61277800E-01  1.87311370E+01
  2.82539370E+00  6.40121700E-01  1.61277800E-01  1.87311370E+01  2.82539370E+00
  6.40121700E-01  1.61277800E-01  1.87311370E+01  2.82539370E+00  6.40121700E-01
  1.61277800E-01  1.87311370E+01  2.82539370E+00  6.40121700E-01  1.61277800E-01
  1.87311370E+01  2.82539370E+00  6.40121700E-01  1.61277800E-01  1.87311370E+01
  2.82539370E+00  6.40121700E-01  1.61277800E-01  1.87311370E+01  2.82539370E+00
  6.40121700E-01  1.61277800E-01  1.87311370E+01  2.82539370E+00  6.40121700E-01
  1.61277800E-01  1.87311370E+01  2.82539370E+00  6.40121700E-01  1.61277800E-01
  1.87311370E+01  2.82539370E+00  6.40121700E-01  1.61277800E-01  1.87311370E+01
  2.82539370E+00  6.40121700E-01  1.61277800E-01  3.84216340E+01  5.77803000E+00
  1.24177400E+00  2.97964000E-01  3.84216340E+01  5.77803000E+00  1.24177400E+00
  2.97964000E-01
Contraction coefficients                   R   N=          56
  3.34945995E-02  2.34726947E-01  8.13757318E-01  1.00000000E+00  3.34945995E-02
  2.34726947E-01  8.13757318E-01  1.00000000E+00  3.34945995E-02  2.34726947E-01
  8.13757318E-01  1.00000000E+00  3.34945995E-02  2.34726947E-01  8.13757318E-01
  1.00000000E+00  3.34945995E-02  2.34726947E-01  8.13757318E-01  1.00000000E+00
  3.34945995E-02  2.34726947E-01  8.13757318E-01  1.00000000E+00  3.34945995E-02
  2.34726947E-01  8.13757318E-01  1.00000000E+00  3.34945995E-02  2.34726947E-01
  8.13757318E-01  1.00000000E+00  3.34945995E-02  2.34726947E-01  8.13757318E-01
  1.00000000E+00  3.34945995E-02  2.34726947E-01  8.13757318E-01  1.00000000E+00
  3.34945995E-02  2.34726947E-01  8.13757318E-01  1.00000000E+00  3.34945995E-02
  2.34726947E-01  8.13757318E-01  1.00000000E+00  4.01397393E-02  2.61246097E-01
  7.93184625E-01  1.00000000E+00  4.01397393E-02  2.61246097E-01  7.93184625E-01
  1.00000000E+00
Coordinates of each shell                  R   N=          84
 -1.39563833E+00 -1.02168043E+00  1.62062912E-01 -1.39563833E+00 -1.02168043E+00
  1.62062912E-01 -4.37169242E+00 -1.92275854E+00 -1.26643776E+00 -4.37169242E+00
 -1.92275854E+00 -1.26643776E+00 -3.96052581E+00  1.23869658E+00 -2.16562614E-02
 -3.96052581E+00  1.23869658E+00 -2.16562614E-02 -4.17712622E+00 -1.42555270E+00
  2.11639877E+00 -4.17712622E+00 -1.42555270E+00  2.11639877E+00  2.79063416E+00
  6.93913102E+00  1.85722284E-01  2.79063416E+00  6.93913102E+00  1.85722284E-01
  3.18418852E-01  8.05064903E+00  2.27798925E+00  3.18418852E-01  8.05064903E+00
  2.27798925E+00  3.45574216E-01  4.79007778E+00  1.24094535E+00  3.45574216E-01
  4.79007778E+00  1.24094535E+00 -4.09806007E-01  7.28542334E+00 -9.77800989E-01
 -4.09806007E-01  7.28542334E+00 -9.77800989E-01  6.59230959E+00 -1.65451191E+00
 -1.14970937E-01  6.59230959E+00 -1.65451191E+00 -1.14970937E-01  4.33973715E+00
  9.17991157E-01 -3.60937690E-03  4.33973715E+00  9.17991157E-01 -3.60937690E-03
  3.66531279E+00 -2.01588424E+00  1.62501329E+00  3.66531279E+00 -2.01588424E+00
  1.62501329E+00  3.62048849E+00 -1.90796198E+00 -1.79565556E+00  3.62048849E+00
 -1.90796198E+00 -1.79565556E+00  1.88972612E+01  1.88972612E+01  1.88972612E+01
  1.88972612E+01  1.88972612E+01  1.88972612E+01 -1.88972612E+01  1.88972612E+01
  1.88972612E+01 -1.88972612E+01  1.88972612E+01  1.88972612E+01
SCF Energy                                 R     -1.147109901574378E+01
Number of independent functions            I               28
Alpha MO coefficients                      R   N=         784
  1.18773010E-21 -1.20612995E-21 -1.18311423E-21  2.81149281E-21 -4.85358149E-23
  2.74755507E-22  2.29757632E-21 -3.88206723E-21 -2.64552084E-21  4.73088200E-21
 -5.61600292E-22 -2.23826107E-22  3.19252490E-22 -1.30284280E-21  2.70083406E-21
 -2.66605908E-21 -1.37407492E-21  1.22205607E-21 -2.93572978E-22  6.28671181E-22
  1.91904284E-21 -1.10293081E-21 -5.04717627E-22 -6.79618904E-22 -5.92081261E-01
 -5.13586011E-01 -5.00993417E-21  5.17230281E-21 -2.64940797E-16  1.99286678E-16
  2.93884526E-17 -4.28592153E-16 -8.12227272E-17  1.15510590E-16 -2.13924913E-17
  2.45489906E-16 -1.70250867E-16  1.73092584E-16  1.36901273E-16 -1.08924466E-16
 -3.61820803E-16 -4.20192789E-16  3.21036637E-16  2.21255111E-16 -3.83453316E-16
  2.36215256E-16 -1.44638897E-16 -1.32061772E-16 -3.79840227E-17 -5.88721483E-16
 -1.12537756E-17  3.36369388E-16 -1.03412995E-16  1.06753381E-16 -5.92081261E-01
 -5.13586011E-01  1.65936537E-02  9.02705392E-02 -4.43595170E-01 -7.24299061E-01
  1.63255998E-02  8.99377386E-02  1.60079528E-02  8.97875926E-02  7.86890627E-04
 -9.24148726E-05  6.35048820E-04  2.57150281E-05 -4.53643851E-03 -1.29659117E-03
 -4.59550818E-04  3.90677417E-04  9.36548557E-04  5.99651444E-04 -1.21259011E-03
  1.02767215E-04 -2.51928049E-03 -1.87022686E-03 -5.07145901E-04 -2.05508589E-03
  8.67020654E-17  7.49800235E-17 -1.15345788E-16 -8.40742942E-17  1.75339968E-03
  1.17965951E-04 -6.84059290E-04 -2.63523580E-05  2.25052032E-03  1.20129151E-03
 -3.11237831E-04 -2.05504773E-04 -1.61961430E-02 -8.97260639E-02  4.43590234E-01
  7.24263789E-01 -1.65456370E-02 -9.00131713E-02 -1.60381669E-02 -9.00788681E-02
 -7.33684200E-04  3.92335718E-05  4.25840413E-03  1.36840264E-03 -1.41973336E-04
 -2.08905968E-04 -3.72101584E-04 -1.59796149E-04  3.47184019E-17  2.96456669E-17
 -4.29993864E-17 -4.31541087E-17  7.47850794E-03  4.16111784E-03 -7.87900998E-04
 -4.98425526E-04 -8.86409149E-04 -4.09622200E-04 -7.57675250E-04 -4.91717721E-04
  1.36120865E-03  2.18697975E-04 -7.13864501E-04  5.77883869E-06  3.02019250E-03
  9.49557816E-04 -4.11907261E-04 -1.84999032E-04  4.43816667E-01  7.24058480E-01
 -1.65264295E-02 -9.00669041E-02 -1.67771015E-02 -8.97482530E-02 -1.66772400E-02
 -8.98454266E-02  8.79148787E-17  7.82855962E-17  1.46521377E-16  1.11400947E-16
  1.60496200E-02  9.02084425E-02  1.61698877E-02  8.99168514E-02 -4.44009688E-01
 -7.24491856E-01  1.60429064E-02  9.00289214E-02 -1.96720427E-03 -1.64665960E-03
 -9.76308645E-04 -2.16958741E-03  8.51192218E-03  1.33908762E-02  3.31327012E-03
 -1.57652697E-03  1.00127981E-03  5.73292652E-04 -3.20829240E-04 -3.98779110E-04
 -2.38775636E-03 -1.85902067E-03 -1.77466277E-03 -1.65344387E-03  1.30760960E-16
  1.12634484E-16  1.92500567E-16  1.80579380E-16 -8.03215865E-03 -1.70957298E-02
 -4.57088605E-04  3.04579341E-03  7.84006585E-04  2.52411009E-03  1.67199425E-03
  2.10970147E-03  1.31331629E-03  2.34466624E-04 -4.51262901E-04 -1.87427770E-04
  1.57247207E-03  1.39963983E-03 -4.01084768E-04 -1.90050804E-04 -1.62681346E-02
 -8.97324824E-02 -1.59184005E-02 -9.01021300E-02 -1.53236727E-02 -8.98917393E-02
  4.43869994E-01  7.24832096E-01  1.33831214E-16  1.17626504E-16  2.34405079E-17
  4.67091453E-18 -2.90935863E-03 -4.04391264E-03  6.95349799E-04  4.25182417E-04
 -2.02158978E-04  1.10664320E-03  6.23235400E-04  4.68763858E-04 -7.03468837E-03
 -3.45147732E-03  2.58977206E-03  2.42798962E-03 -9.40719924E-03 -1.31174116E-02
  1.32536103E-03  2.84474647E-03 -1.61914816E-02 -9.01218544E-02  4.44197809E-01
  7.24560193E-01 -1.58132241E-02 -9.00481336E-02 -1.59461841E-02 -8.99262544E-02
 -3.76936145E-18 -2.48317049E-18  1.34444981E-16  1.04206432E-16  1.64667747E-02
  9.01998432E-02  1.60049843E-02  8.97611163E-02  1.62017454E-02  9.00202584E-02
 -4.43498995E-01 -7.24339865E-01  4.27031407E-04  9.99379088E-05  3.96949065E-04
  1.10554672E-04 -2.06908955E-03 -1.82510728E-03 -8.28482689E-04  5.73623603E-04
  9.14371652E-04  5.80993437E-04 -1.13754746E-03  1.21131022E-04 -3.70769467E-04
 -2.53096743E-03 -2.63530515E-03 -1.32799308E-03 -4.05326309E-18 -4.36209793E-18
  3.73496315E-17  4.63358370E-17  1.02126903E-03  6.77881892E-04  4.69344640E-05
 -1.85423382E-04 -2.39888491E-03  6.93221503E-04  5.46811830E-04 -4.82262572E-04
 -1.62400904E-02 -8.98886754E-02 -1.60195011E-02 -9.00614894E-02 -1.62239629E-02
 -8.99924494E-02  4.43529450E-01  7.24320136E-01 -5.18536361E-04 -8.64282186E-05
  2.92831631E-03  1.71664129E-03  8.01341144E-05 -3.78027517E-04 -3.98515341E-04
 -1.34083686E-04 -1.05660829E-16 -9.18490836E-17 -3.13951854E-17 -4.00768440E-17
  8.74760448E-03  2.01884633E-02 -1.48475240E-03 -2.74571350E-03 -1.34040361E-03
 -2.69819470E-03  6.41825646E-04 -3.54137790E-03 -1.56331151E-03 -1.66137218E-04
  3.04556839E-04  1.91493745E-04  8.66882705E-05 -1.56108815E-03  6.16230578E-06
  3.91480060E-04  1.63293096E-02  8.95547603E-02  1.57566242E-02  9.02343235E-02
 -4.43999111E-01 -7.24972492E-01  1.52989391E-02  8.99301068E-02  7.74801468E-18
  7.67907748E-18 -8.35553173E-17 -5.61584522E-17 -1.23667828E-03 -3.98902478E-04
  8.00479297E-04 -6.10017437E-05 -3.27328286E-03 -7.99771201E-04  3.03428829E-04
  2.15747927E-04 -4.43722587E-01 -7.24212912E-01  1.61465496E-02  8.97233942E-02
  1.58909224E-02  9.02059542E-02  1.61877263E-02  8.98781341E-02 -6.50973385E-04
 -7.14460338E-04  6.04703038E-03  4.74951305E-03 -1.03317705E-03 -5.03792804E-04
 -7.02050698E-04 -6.42413682E-04 -1.06440398E-17 -1.02119073E-17 -1.02828342E-16
 -7.54124283E-17 -6.87881712E-03 -4.41794965E-03  2.81086563E-03  2.41419120E-03
 -8.89984566E-03 -1.26105269E-02  4.57231223E-04  3.10944755E-03 -1.56691277E-02
 -9.02713297E-02 -1.62388215E-02 -8.99717299E-02  4.44745347E-01  7.24570511E-01
 -1.59399701E-02 -8.99568386E-02  1.87506881E-03  1.68308296E-03 -8.83169998E-03
 -1.40980999E-02 -1.05942955E-03  2.32534950E-03  5.13470301E-04  2.16764080E-03
  8.04577857E-17  7.17805502E-17  1.33473021E-16  1.00768300E-16  4.45135280E-01
  7.25041635E-01 -1.61283695E-02 -9.01047315E-02 -1.57291162E-02 -8.99349059E-02
 -1.59951367E-02 -9.00657110E-02  4.95727886E-04  9.50023284E-04  1.03925150E-03
  5.74104755E-04 -5.83612999E-03 -5.75644885E-03  6.72927393E-04  9.30672326E-04
  4.87999081E-03  6.07074941E-03 -4.78172374E-03 -1.51510472E-03 -9.85506553E-03
 -1.71462125E-02 -9.25376837E-03 -1.41830609E-02 -3.76429934E-17 -2.99648772E-17
  5.93826823E-17  3.60692307E-17  5.96273255E-01 -6.08840273E-01 -2.89955609E-01
  3.65934742E-01  2.08703730E-01 -1.79817859E-01 -1.93975560E-01  2.57440344E-01
  4.11775367E-02 -4.00706080E-03 -2.61259867E-01  3.31739925E-01  6.58313999E-01
 -6.80467850E-01 -1.41661781E-01  1.96662532E-01 -4.15427984E-01  5.16086753E-01
  5.06298621E-01 -4.96630605E-01  2.01685221E-01 -1.53269340E-01  1.27140163E-01
 -7.28092722E-02 -2.14969010E-16  2.21537624E-16  1.90286075E-16 -2.11629763E-16
  5.56427860E-01 -6.12298275E-01  3.43504216E-02 -3.90984315E-02 -5.18325184E-01
  5.89876847E-01 -4.78264629E-02  5.56992155E-02 -1.73677397E-01  1.65714550E-01
  2.76690623E-01 -3.48195790E-01 -3.45339063E-01  3.49069533E-01  1.19213977E-02
 -4.36485216E-02 -3.34016648E-01  4.08192427E-01 -4.17974995E-01  5.03245679E-01
  4.67753508E-01 -4.89989700E-01  4.93922301E-01 -5.23526046E-01  5.40581265E-16
 -5.36349650E-16  2.03538143E-16 -1.92604094E-16 -1.69470240E-02  4.57728748E-02
 -2.61380570E-01  3.23662142E-01  6.03314631E-01 -6.74569676E-01 -1.75019757E-01
  2.23186428E-01 -7.70116943E-01  8.88586491E-01  8.28172997E-02 -9.74940435E-02
  2.41726062E-01 -2.80047985E-01  4.34180635E-01 -5.05353226E-01  1.65771404E-01
 -2.05304615E-01 -4.72051775E-01  5.33687266E-01  1.23788249E-01 -1.58120063E-01
  9.01918541E-02 -1.18912517E-01  2.04384400E-17 -4.73975462E-17  6.56411342E-17
  5.89887483E-17  2.20380004E-02 -2.85220262E-02  5.41865177E-01 -6.39449840E-01
  1.11589403E-01 -1.33492936E-01 -6.79034012E-01  8.01645458E-01  7.87872990E-02
 -8.79982306E-02 -2.00323973E-01  2.40877877E-01 -7.11749799E-02  9.31798811E-02
  2.28346878E-01 -2.65010161E-01 -6.79846466E-02  8.19627379E-02  4.50577305E-02
 -5.26220183E-02 -5.87693900E-01  6.96344884E-01  6.22835715E-01 -7.32492138E-01
 -3.00577971E-17  2.90832223E-17  1.32967216E-16 -1.53221482E-16 -3.61225226E-02
  4.10776108E-02  1.20685642E-01 -1.42156777E-01  8.09946077E-02 -8.86578799E-02
 -1.54115411E-01  1.84274176E-01 -2.52530373E-01  3.03157365E-01  8.20422527E-01
 -9.71800104E-01  2.74239857E-01 -3.20166125E-01 -8.19147137E-01  9.76322759E-01
  1.05327324E-01 -1.25768730E-01  3.20259416E-02 -3.42695312E-02 -2.52399668E-01
  2.97365302E-01  1.11510149E-01 -1.34686159E-01  1.93666567E-16 -1.53530086E-16
  2.62093430E-16 -3.88979520E-16 -9.15625899E-03  6.96636835E-03 -6.27470294E-01
  7.47720041E-01 -2.22628274E-02  2.48076691E-02  6.48454404E-01 -7.74770638E-01
  2.50855259E-02 -3.03077764E-02 -2.30592591E-02  2.72500566E-02 -2.41758893E-02
  2.74551904E-02  1.90944422E-02 -2.31177891E-02 -3.07724399E-02  3.63922824E-02
 -9.26753868E-03  1.01453554E-02 -6.16320062E-01  7.34657323E-01  6.52582921E-01
 -7.79346880E-01  5.51245053E-16 -5.68825449E-16  8.08987398E-16 -5.39904374E-16
 -9.12443224E-02  1.63798635E-01  4.66265488E-01 -5.11462588E-01 -4.06784301E-01
  5.57043687E-01  4.04132586E-01 -4.35871999E-01 -6.73477809E-01  8.36552143E-01
  1.39284292E-01 -1.57085085E-01  2.26251384E-01 -2.63791540E-01  3.91687774E-01
 -4.64966948E-01 -3.92613354E-01  4.31447348E-01  4.47171296E-01 -5.93955255E-01
 -2.17357092E-01  2.11582097E-01 -1.58220906E-01  1.40501938E-01  7.70578984E-16
 -7.83134858E-16 -1.09362385E-15  1.17447231E-15 -4.22104033E-01  5.07380456E-01
 -1.29330822E-01  1.40504018E-01  4.92290270E-01 -6.29199064E-01 -5.66980107E-02
  5.19623452E-02  2.45163248E-01 -2.32017102E-01  3.94534180E-01 -4.16312716E-01
 -3.17311522E-01  4.66497324E-01  1.25563063E-01 -8.68427922E-02 -9.47297587E-01
  1.02908567E+00  3.28187709E-02 -1.83312759E-01  7.04384645E-02 -2.33408938E-01
 -4.63086889E-02 -8.83270507E-02 -5.63232524E-17  6.17693410E-17 -1.24794263E-15
  1.44990192E-15 -3.13963319E-01  5.16982365E-01  4.85991841E-01 -4.91859693E-01
  1.54183716E-01 -7.05500721E-02  4.06450230E-01 -3.93750756E-01 -5.94509173E-02
 -5.20875933E-02 -5.73190293E-01  5.86343667E-01  3.36665832E-01 -5.52760307E-01
 -5.08984425E-01  5.07392727E-01 -3.19109353E-01  3.31985208E-01 -5.31079221E-01
  6.00279214E-01  1.91815623E-01 -3.17288229E-01  2.32020481E-01 -3.64280841E-01
  2.77280285E-16 -2.80311281E-16  1.16024266E-17  1.03101639E-16  2.49641441E-01
 -2.27153063E-02  5.28774496E-01 -3.93391740E-01  4.67984440E-01 -3.15416975E-01
  5.26496666E-01 -3.90416466E-01  4.72772100E-01 -3.58768597E-01  4.57736548E-01
 -3.39914695E-01  2.09440386E-01 -1.75363283E-02  3.92128841E-01 -2.56368511E-01
  3.35602479E-01 -2.54582285E-01  1.33137398E-01  6.42616802E-03  3.10771408E-01
 -2.21769303E-01  3.10158760E-01 -2.21226895E-01  3.74879037E-16 -3.99659600E-16
 -7.80269958E-17 -2.18294334E-18 -1.63665205E-01  5.00491906E-02 -1.37421031E-01
  2.09285669E-02 -4.85667170E-01  4.91523909E-01 -1.79627253E-01  7.58058497E-02
  4.81836777E-01 -3.09446610E-01  2.96094235E-01 -6.22261437E-02  8.07051898E-01
 -7.53051647E-01  3.85823347E-01 -1.79660449E-01 -1.57007619E-01  2.12473108E-02
 -5.80847517E-01  5.93157102E-01 -2.07389970E-01  8.47260833E-02 -1.72954958E-01
  4.00865865E-02  6.76096970E-16 -6.52247262E-16 -2.08545524E-15  2.22967243E-15
  8.10546002E-01 -8.46680868E-01  2.07413268E-01 -1.22918757E-02  3.08362263E-01
 -1.49646921E-01  2.23390012E-01 -3.33695911E-02  4.64196614E-02 -1.03572874E-01
 -3.04714023E-02 -5.27030116E-04 -1.96601394E-01  2.23357676E-01 -6.41248981E-02
  4.36406850E-02 -2.21683899E-01 -2.67881984E-02 -4.33482395E-01  2.56676842E-01
 -6.23402364E-01  5.30825083E-01 -6.14087063E-01  5.14556855E-01  1.22902089E-15
 -1.24268733E-15 -1.01229985E-15  1.17326910E-15  1.58850747E-15 -1.57626765E-15
  2.83255959E-16  4.33904505E-17 -3.40781831E-16  8.56942800E-16  1.30009844E-15
 -1.18777879E-15  1.08445750E-16  1.54530804E-17  8.62967785E-16 -7.52498273E-16
  2.54556148E-16 -8.00677711E-17  2.43512397E-16 -1.36476462E-16 -6.20187453E-16
  2.40911117E-16 -1.61336324E-15  1.41744817E-15 -1.21829574E-15  1.03717443E-15
  2.71545478E-17 -4.08106567E-16 -1.14981805E+00  1.18695880E+00 -9.49886590E-11
  9.80568573E-11 -5.23356107E-16  4.73430012E-16  7.96725415E-16 -9.91673271E-16
 -4.09499141E-16  5.72939933E-16  9.07584633E-17 -2.21373483E-17  6.83593804E-16
 -2.16541582E-16  1.09571477E-15 -6.45093995E-16  1.18342601E-15 -8.42239081E-16
  1.72609254E-15 -1.46838008E-15 -2.37227123E-15  1.90046137E-15 -1.16719209E-15
  5.43993882E-16 -7.42488587E-16  6.83986455E-17 -2.13334705E-15  1.58110012E-15
 -9.49891010E-11  9.80574205E-11  1.14981805E+00 -1.18695880E+00
Beta MO coefficients                       R   N=         784
  1.18773010E-21 -1.20612995E-21 -1.18311423E-21  2.81149281E-21 -4.85358149E-23
  2.74755507E-22  2.29757632E-21 -3.88206723E-21 -2.64552084E-21  4.73088200E-21
 -5.61600292E-22 -2.23826107E-22  3.19252490E-22 -1.30284280E-21  2.70083406E-21
 -2.66605908E-21 -1.37407492E-21  1.22205607E-21 -2.93572978E-22  6.28671181E-22
  1.91904284E-21 -1.10293081E-21 -5.04717627E-22 -6.79618904E-22 -5.92081261E-01
 -5.13586011E-01 -5.00993417E-21  5.17230281E-21 -2.64940797E-16  1.99286678E-16
  2.93884526E-17 -4.28592153E-16 -8.12227272E-17  1.15510590E-16 -2.13924913E-17
  2.45489906E-16 -1.70250867E-16  1.73092584E-16  1.36901273E-16 -1.08924466E-16
 -3.61820803E-16 -4.20192789E-16  3.21036637E-16  2.21255111E-16 -3.83453316E-16
  2.36215256E-16 -1.44638897E-16 -1.32061772E-16 -3.79840227E-17 -5.88721483E-16
 -1.12537756E-17  3.36369388E-16 -1.03412995E-16  1.06753381E-16 -5.92081261E-01
 -5.13586011E-01  1.65936537E-02  9.02705392E-02 -4.43595170E-01 -7.24299061E-01
  1.63255998E-02  8.99377386E-02  1.60079528E-02  8.97875926E-02  7.86890627E-04
 -9.24148726E-05  6.35048820E-04  2.57150281E-05 -4.53643851E-03 -1.29659117E-03
 -4.59550818E-04  3.90677417E-04  9.36548557E-04  5.99651444E-04 -1.21259011E-03
  1.02767215E-04 -2.51928049E-03 -1.87022686E-03 -5.07145901E-04 -2.05508589E-03
  8.67020654E-17  7.49800235E-17 -1.15345788E-16 -8.40742942E-17  1.75339968E-03
  1.17965951E-04 -6.84059290E-04 -2.63523580E-05  2.25052032E-03  1.20129151E-03
 -3.11237831E-04 -2.05504773E-04 -1.61961430E-02 -8.97260639E-02  4.43590234E-01
  7.24263789E-01 -1.65456370E-02 -9.00131713E-02 -1.60381669E-02 -9.00788681E-02
 -7.33684200E-04  3.92335718E-05  4.25840413E-03  1.36840264E-03 -1.41973336E-04
 -2.08905968E-04 -3.72101584E-04 -1.59796149E-04  3.47184019E-17  2.96456669E-17
 -4.29993864E-17 -4.31541087E-17  7.47850794E-03  4.16111784E-03 -7.87900998E-04
 -4.98425526E-04 -8.86409149E-04 -4.09622200E-04 -7.57675250E-04 -4.91717721E-04
  1.36120865E-03  2.18697975E-04 -7.13864501E-04  5.77883869E-06  3.02019250E-03
  9.49557816E-04 -4.11907261E-04 -1.84999032E-04  4.43816667E-01  7.24058480E-01
 -1.65264295E-02 -9.00669041E-02 -1.67771015E-02 -8.97482530E-02 -1.66772400E-02
 -8.98454266E-02  8.79148787E-17  7.82855962E-17  1.46521377E-16  1.11400947E-16
  1.60496200E-02  9.02084425E-02  1.61698877E-02  8.99168514E-02 -4.44009688E-01
 -7.24491856E-01  1.60429064E-02  9.00289214E-02 -1.96720427E-03 -1.64665960E-03
 -9.76308645E-04 -2.16958741E-03  8.51192218E-03  1.33908762E-02  3.31327012E-03
 -1.57652697E-03  1.00127981E-03  5.73292652E-04 -3.20829240E-04 -3.98779110E-04
 -2.38775636E-03 -1.85902067E-03 -1.77466277E-03 -1.65344387E-03  1.30760960E-16
  1.12634484E-16  1.92500567E-16  1.80579380E-16 -8.03215865E-03 -1.70957298E-02
 -4.57088605E-04  3.04579341E-03  7.84006585E-04  2.52411009E-03  1.67199425E-03
  2.10970147E-03  1.31331629E-03  2.34466624E-04 -4.51262901E-04 -1.87427770E-04
  1.57247207E-03  1.39963983E-03 -4.01084768E-04 -1.90050804E-04 -1.62681346E-02
 -8.97324824E-02 -1.59184005E-02 -9.01021300E-02 -1.53236727E-02 -8.98917393E-02
  4.43869994E-01  7.24832096E-01  1.33831214E-16  1.17626504E-16  2.34405079E-17
  4.67091453E-18 -2.90935863E-03 -4.04391264E-03  6.95349799E-04  4.25182417E-04
 -2.02158978E-04  1.10664320E-03  6.23235400E-04  4.68763858E-04 -7.03468837E-03
 -3.45147732E-03  2.58977206E-03  2.42798962E-03 -9.40719924E-03 -1.31174116E-02
  1.32536103E-03  2.84474647E-03 -1.61914816E-02 -9.01218544E-02  4.44197809E-01
  7.24560193E-01 -1.58132241E-02 -9.00481336E-02 -1.59461841E-02 -8.99262544E-02
 -3.76936145E-18 -2.48317049E-18  1.34444981E-16  1.04206432E-16  1.64667747E-02
  9.01998432E-02  1.60049843E-02  8.97611163E-02  1.62017454E-02  9.00202584E-02
 -4.43498995E-01 -7.24339865E-01  4.27031407E-04  9.99379088E-05  3.96949065E-04
  1.10554672E-04 -2.06908955E-03 -1.82510728E-03 -8.28482689E-04  5.73623603E-04
  9.14371652E-04  5.80993437E-04 -1.13754746E-03  1.21131022E-04 -3.70769467E-04
 -2.53096743E-03 -2.63530515E-03 -1.32799308E-03 -4.05326309E-18 -4.36209793E-18
  3.73496315E-17  4.63358370E-17  1.02126903E-03  6.77881892E-04  4.69344640E-05
 -1.85423382E-04 -2.39888491E-03  6.93221503E-04  5.46811830E-04 -4.82262572E-04
 -1.62400904E-02 -8.98886754E-02 -1.60195011E-02 -9.00614894E-02 -1.62239629E-02
 -8.99924494E-02  4.43529450E-01  7.24320136E-01 -5.18536361E-04 -8.64282186E-05
  2.92831631E-03  1.71664129E-03  8.01341144E-05 -3.78027517E-04 -3.98515341E-04
 -1.34083686E-04 -1.05660829E-16 -9.18490836E-17 -3.13951854E-17 -4.00768440E-17
  8.74760448E-03  2.01884633E-02 -1.48475240E-03 -2.74571350E-03 -1.34040361E-03
 -2.69819470E-03  6.41825646E-04 -3.54137790E-03 -1.56331151E-03 -1.66137218E-04
  3.04556839E-04  1.91493745E-04  8.66882705E-05 -1.56108815E-03  6.16230578E-06
  3.91480060E-04  1.63293096E-02  8.95547603E-02  1.57566242E-02  9.02343235E-02
 -4.43999111E-01 -7.24972492E-01  1.52989391E-02  8.99301068E-02  7.74801468E-18
  7.67907748E-18 -8.35553173E-17 -5.61584522E-17 -1.23667828E-03 -3.98902478E-04
  8.00479297E-04 -6.10017437E-05 -3.27328286E-03 -7.99771201E-04  3.03428829E-04
  2.15747927E-04 -4.43722587E-01 -7.24212912E-01  1.61465496E-02  8.97233942E-02
  1.58909224E-02  9.02059542E-02  1.61877263E-02  8.98781341E-02 -6.50973385E-04
 -7.14460338E-04  6.04703038E-03  4.74951305E-03 -1.03317705E-03 -5.03792804E-04
 -7.02050698E-04 -6.42413682E-04 -1.06440398E-17 -1.02119073E-17 -1.02828342E-16
 -7.54124283E-17 -6.87881712E-03 -4.41794965E-03  2.81086563E-03  2.41419120E-03
 -8.89984566E-03 -1.26105269E-02  4.57231223E-04  3.10944755E-03 -1.56691277E-02
 -9.02713297E-02 -1.62388215E-02 -8.99717299E-02  4.44745347E-01  7.24570511E-01
 -1.59399701E-02 -8.99568386E-02  1.87506881E-03  1.68308296E-03 -8.83169998E-03
 -1.40980999E-02 -1.05942955E-03  2.32534950E-03  5.13470301E-04  2.16764080E-03
  8.04577857E-17  7.17805502E-17  1.33473021E-16  1.00768300E-16  4.45135280E-01
  7.25041635E-01 -1.61283695E-02 -9.01047315E-02 -1.57291162E-02 -8.99349059E-02
 -1.59951367E-02 -9.00657110E-02  4.95727886E-04  9.50023284E-04  1.03925150E-03
  5.74104755E-04 -5.83612999E-03 -5.75644885E-03  6.72927393E-04  9.30672326E-04
  4.87999081E-03  6.07074941E-03 -4.78172374E-03 -1.51510472E-03 -9.85506553E-03
 -1.71462125E-02 -9.25376837E-03 -1.41830609E-02 -3.76429934E-17 -2.99648772E-17
  5.93826823E-17  3.60692307E-17  5.96273255E-01 -6.08840273E-01 -2.89955609E-01
  3.65934742E-01  2.08703730E-01 -1.79817859E-01 -1.93975560E-01  2.57440344E-01
  4.11775367E-02 -4.00706080E-03 -2.61259867E-01  3.31739925E-01  6.58313999E-01
 -6.80467850E-01 -1.41661781E-01  1.96662532E-01 -4.15427984E-01  5.16086753E-01
  5.06298621E-01 -4.96630605E-01  2.01685221E-01 -1.53269340E-01  1.27140163E-01
 -7.28092722E-02 -2.14969010E-16  2.21537624E-16  1.90286075E-16 -2.11629763E-16
  5.56427860E-01 -6.12298275E-01  3.43504216E-02 -3.90984315E-02 -5.18325184E-01
  5.89876847E-01 -4.78264629E-02  5.56992155E-02 -1.73677397E-01  1.65714550E-01
  2.76690623E-01 -3.48195790E-01 -3.45339063E-01  3.49069533E-01  1.19213977E-02
 -4.36485216E-02 -3.34016648E-01  4.08192427E-01 -4.17974995E-01  5.03245679E-01
  4.67753508E-01 -4.89989700E-01  4.93922301E-01 -5.23526046E-01  5.40581265E-16
 -5.36349650E-16  2.03538143E-16 -1.92604094E-16 -1.69470240E-02  4.57728748E-02
 -2.61380570E-01  3.23662142E-01  6.03314631E-01 -6.74569676E-01 -1.75019757E-01
  2.23186428E-01 -7.70116943E-01  8.88586491E-01  8.28172997E-02 -9.74940435E-02
  2.41726062E-01 -2.80047985E-01  4.34180635E-01 -5.05353226E-01  1.65771404E-01
 -2.05304615E-01 -4.72051775E-01  5.33687266E-01  1.23788249E-01 -1.58120063E-01
  9.01918541E-02 -1.18912517E-01  2.04384400E-17 -4.73975462E-17  6.56411342E-17
  5.89887483E-17  2.20380004E-02 -2.85220262E-02  5.41865177E-01 -6.39449840E-01
  1.11589403E-01 -1.33492936E-01 -6.79034012E-01  8.01645458E-01  7.87872990E-02
 -8.79982306E-02 -2.00323973E-01  2.40877877E-01 -7.11749799E-02  9.31798811E-02
  2.28346878E-01 -2.65010161E-01 -6.79846466E-02  8.19627379E-02  4.50577305E-02
 -5.26220183E-02 -5.87693900E-01  6.96344884E-01  6.22835715E-01 -7.32492138E-01
 -3.00577971E-17  2.90832223E-17  1.32967216E-16 -1.53221482E-16 -3.61225226E-02
  4.10776108E-02  1.20685642E-01 -1.42156777E-01  8.09946077E-02 -8.86578799E-02
 -1.54115411E-01  1.84274176E-01 -2.52530373E-01  3.03157365E-01  8.20422527E-01
 -9.71800104E-01  2.74239857E-01 -3.20166125E-01 -8.19147137E-01  9.76322759E-01
  1.05327324E-01 -1.25768730E-01  3.20259416E-02 -3.42695312E-02 -2.52399668E-01
  2.97365302E-01  1.11510149E-01 -1.34686159E-01  1.93666567E-16 -1.53530086E-16
  2.62093430E-16 -3.88979520E-16 -9.15625899E-03  6.96636835E-03 -6.27470294E-01
  7.47720041E-01 -2.22628274E-02  2.48076691E-02  6.48454404E-01 -7.74770638E-01
  2.50855259E-02 -3.03077764E-02 -2.30592591E-02  2.72500566E-02 -2.41758893E-02
  2.74551904E-02  1.90944422E-02 -2.31177891E-02 -3.07724399E-02  3.63922824E-02
 -9.26753868E-03  1.01453554E-02 -6.16320062E-01  7.34657323E-01  6.52582921E-01
 -7.79346880E-01  5.51245053E-16 -5.68825449E-16  8.08987398E-16 -5.39904374E-16
 -9.12443224E-02  1.63798635E-01  4.66265488E-01 -5.11462588E-01 -4.06784301E-01
  5.57043687E-01  4.04132586E-01 -4.35871999E-01 -6.73477809E-01  8.36552143E-01
  1.39284292E-01 -1.57085085E-01  2.26251384E-01 -2.63791540E-01  3.91687774E-01
 -4.64966948E-01 -3.92613354E-01  4.31447348E-01  4.47171296E-01 -5.93955255E-01
 -2.17357092E-01  2.11582097E-01 -1.58220906E-01  1.40501938E-01  7.70578984E-16
 -7.83134858E-16 -1.09362385E-15  1.17447231E-15 -4.22104033E-01  5.07380456E-01
 -1.29330822E-01  1.40504018E-01  4.92290270E-01 -6.29199064E-01 -5.66980107E-02
  5.19623452E-02  2.45163248E-01 -2.32017102E-01  3.94534180E-01 -4.16312716E-01
 -3.17311522E-01  4.66497324E-01  1.25563063E-01 -8.68427922E-02 -9.47297587E-01
  1.02908567E+00  3.28187709E-02 -1.83312759E-01  7.04384645E-02 -2.33408938E-01
 -4.63086889E-02 -8.83270507E-02 -5.63232524E-17  6.17693410E-17 -1.24794263E-15
  1.44990192E-15 -3.13963319E-01  5.16982365E-01  4.85991841E-01 -4.91859693E-01
  1.54183716E-01 -7.05500721E-02  4.06450230E-01 -3.93750756E-01 -5.94509173E-02
 -5.20875933E-02 -5.73190293E-01  5.86343667E-01  3.36665832E-01 -5.52760307E-01
 -5.08984425E-01  5.07392727E-01 -3.19109353E-01  3.31985208E-01 -5.31079221E-01
  6.00279214E-01  1.91815623E-01 -3.17288229E-01  2.32020481E-01 -3.64280841E-01