                  Welcome to Q-Chem
     A Quantum Leap Into The Future Of Chemistry


 Q-Chem 4.3, Q-Chem, Inc., Pleasanton, CA (2015)

 Y. Shao,  Z. Gan,  E. Epifanovsky,  A. T. B. Gilbert,  M. Wormit,  
 J. Kussmann,  A. W. Lange,  A. Behn,  J. Deng,  X. Feng,  D. Ghosh,  
 M. Goldey,  P. R. Horn,  L. D. Jacobson,  I. Kaliman,  R. Z. Khaliullin,  
 T. Kus,  A. Landau,  J. Liu,  E. I. Proynov,  Y. M. Rhee,  R. M. Richard,  
 M. A. Rohrdanz,  R. P. Steele,  E. J. Sundstrom,  H. L. Woodcock III,  
 P. M. Zimmerman,  D. Zuev,  B. Albrecht,  E. Alguire,  B. Austin,  
 S. A. Baeppler,  G. J. O. Beran,  Y. A. Bernard,  E. Berquist,  
 K. Brandhorst,  K. B. Bravaya,  S. T. Brown,  D. Casanova,  C.-M. Chang,  
 Y. Chen,  S. H. Chien,  K. D. Closser,  D. L. Crittenden,  M. Diedenhofen,  
 R. A. DiStasio Jr.,  H. Do,  A. D. Dutoi,  R. G. Edgar,  P.-T. Fang,  
 S. Fatehi,  Q. Feng,  L. Fusti-Molnar,  A. Ghysels,  
 A. Golubeva-Zadorozhnaya,  J. Gomes,  A. Gunina,  M. W. D. Hanson-Heine,  
 P. H. P. Harbach,  A. W. Hauser,  E. G. Hohenstein,  Z. C. Holden,  K. Hui,  
 T.-C. Jagau,  H. Ji,  B. Kaduk,  K. Khistyaev,  Jaehoon Kim,  Jihan Kim,  
 R. A. King,  P. Klunzinger,  D. Kosenkov,  T. Kowalczyk,  C. M. Krauter,  
 K. U. Lao,  A. Laurent,  K. V. Lawler,  S. Lehtola,  S. V. Levchenko,  
 C. Y. Lin,  Y.-S. Lin,  F. Liu,  E. Livshits,  R. C. Lochan,  A. Luenser,  
 P. Manohar,  S. F. Manzer,  S.-P. Mao,  N. Mardirossian,  A. V. Marenich,  
 L. A. Martinez-Martinez,  S. A. Maurer,  N. J. Mayhall,  K. Nanda,  
 C. M. Oana,  R. Olivares-Amaya,  D. P. O'Neill,  J. A. Parkhill,  
 T. M. Perrine,  R. Peverati,  P. A. Pieniazek,  F. Plasser,  A. Prociuk,  
 D. R. Rehn,  E. Rosta,  N. J. Russ,  N. Sergueev,  S. M. Sharada,  
 S. Sharma,  D. W. Small,  A. Sodt,  T. Stauch,  T. Stein,  D. Stuck,  
 Y.-C. Su,  A. J. W. Thom,  T. Tsuchimochi,  L. Vogt,  O. Vydrov,  T. Wang,  
 M. A. Watson,  J. Wenzel,  A. White,  C. F. Williams,  V. Vanovschi,  
 S. Yeganeh,  S. R. Yost,  Z.-Q. You,  I. Y. Zhang,  X. Zhang,  Y. Zhao,  
 B. R. Brooks,  G. K. L. Chan,  D. M. Chipman,  C. J. Cramer,  
 W. A. Goddard III,  M. S. Gordon,  W. J. Hehre,  A. Klamt,  
 H. F. Schaefer III,  M. W. Schmidt,  C. D. Sherrill,  D. G. Truhlar,  
 A. Warshel,  X. Xu,  A. Aspuru-Guzik,  R. Baer,  A. T. Bell,  N. A. Besley,  
 J.-D. Chai,  A. Dreuw,  B. D. Dunietz,  T. R. Furlani,  S. R. Gwaltney,  
 C.-P. Hsu,  Y. Jung,  J. Kong,  D. S. Lambrecht,  W. Liang,  C. Ochsenfeld,  
 V. A. Rassolov,  L. V. Slipchenko,  J. E. Subotnik,  T. Van Voorhis,  
 J. M. Herbert,  A. I. Krylov,  P. M. W. Gill,  M. Head-Gordon

 Contributors to earlier versions of Q-Chem not listed above: 
 R. D. Adamson,  J. Baker,  E. F. C. Byrd,  A. K. Chakraborty,  C.-L. Cheng,  
 H. Dachsel,  R. J. Doerksen,  G. Hawkins,  A. Heyden,  S. Hirata,  
 G. Kedziora,  F. J. Keil,  C. Kelley,  P. P. Korambath,  W. Kurlancheek,  
 A. M. Lee,  M. S. Lee,  D. Liotard,  I. Lotan,  P. E. Maslen,  N. Nair,  
 D. Neuhauser,  R. Olson,  B. Peters,  J. Ritchie,  N. E. Schultz,  
 N. Shenvi,  A. C. Simmonett,  K. S. Thanthiriwatte,  Q. Wu,  W. Zhang

 Please cite Q-Chem as follows:
 Y. Shao et al., Mol. Phys. 113, 184-215 (2015)
 DOI: 10.1080/00268976.2014.952696

 Q-Chem 4.3.0 for Intel X86 EM64T Linux

 Parts of Q-Chem use Armadillo 5.200.1 (Boston Tea Smuggler).
 http://arma.sourceforge.net/

 Q-Chem begins on Mon Mar 20 16:11:02 2017  


Host: 0

     Scratch files written to /home/nmayhall/scratch_qchem/06//
 Dec1416 |home|nmayhall|qcSoftware|qchem|qchem.svn-casman|libmdc|qstr_RNUM -1
 Using version located at /home/nmayhall/qcSoftware/qchem/qchem.svn-casman/bin/qchem


Total Memory Limit in MB = 2000
Mega-Array Size in MB = 62

Checking the input file for inconsistencies... 	...done.

 Q-Chem warning in module /home/nmayhall/qcSoftware/qchem/qchem.svn-casman/forms1/BasisType.C, line 1452:

 You are not using the predefined 5D/6D in this basis set.

Finally everything over in PARseQInput

--------------------------------------------------------------
User input:
--------------------------------------------------------------
$rem
	exchange 		hf
	unrestricted		1
	basis			6-31g*	
	aux_basis		rimp2-vdz
	scf_guess		core	
	scf_convergence		8
	purecart		1111

	symmetry		0
	sym_ignore		1

	!correlation		sf-cas
	!cas_n_spin_flip		1
	!cas_local		1
	gui			2
$end

$development
	1sf_heis_projection	1
$end

$molecule
0 13
H         -0.73854       -0.54065        0.08576
H         -2.31340       -1.01748       -0.67017
H         -2.09582        0.65549       -0.01146
H         -2.21044       -0.75437        1.11995
H	1.47674	3.67203	0.09828
H	0.1685	4.26022	1.20546
H	0.18287	2.5348	0.65668
H	-0.21686	3.85528	-0.51743
H          3.48850       -0.87553       -0.06084
H          2.29649        0.48578       -0.00191
H          1.93960       -1.06676        0.85992
H          1.91588       -1.00965       -0.95022
He	10	10	10	
He	-10	10	10	
$end


--------------------------------------------------------------
 ----------------------------------------------------------------
             Standard Nuclear Orientation (Angstroms)
    I     Atom           X                Y                Z
 ----------------------------------------------------------------
    1      H      -0.7385400000    -0.5406500000     0.0857600000
    2      H      -2.3134000000    -1.0174800000    -0.6701700000
    3      H      -2.0958200000     0.6554900000    -0.0114600000
    4      H      -2.2104400000    -0.7543700000     1.1199500000
    5      H       1.4767400000     3.6720300000     0.0982800000
    6      H       0.1685000000     4.2602200000     1.2054600000
    7      H       0.1828700000     2.5348000000     0.6566800000
    8      H      -0.2168600000     3.8552800000    -0.5174300000
    9      H       3.4885000000    -0.8755300000    -0.0608400000
   10      H       2.2964900000     0.4857800000    -0.0019100000
   11      H       1.9396000000    -1.0667600000     0.8599200000
   12      H       1.9158800000    -1.0096500000    -0.9502200000
   13      He     10.0000000000    10.0000000000    10.0000000000
   14      He    -10.0000000000    10.0000000000    10.0000000000
 ----------------------------------------------------------------
 Nuclear Repulsion Energy =    12.5439205250 hartrees
 There are       14 alpha and        2 beta electrons
 Requested basis set is 6-31G(d)
 There are 28 shells and 28 basis functions

Total QAlloc Memory Limit   2000 MB
Mega-Array Size        61 MB
MEM_STATIC part        62 MB

finished with qalloc call

                       Distance Matrix (Angstroms)
             H (  1)   H (  2)   H (  3)   H (  4)   H (  5)   H (  6)
   H (  2)  1.810796
   H (  3)  1.811743  1.811096
   H (  4)  1.811550  1.812280  1.811334
   H (  5)  4.759653  6.078419  4.677044  5.850822
   H (  6)  5.012465  6.126331  4.427428  5.550926  1.811990
   H (  7)  3.260880  4.539889  3.028307  4.094043  1.810857  1.810646
   H (  8)  4.467683  5.306845  3.745017  5.282447  1.811342  1.811306
   H (  9)  4.242818  5.835536  5.790604  5.821242  4.975219  6.245146
   H ( 10)  3.205098  4.894635  4.395598  4.807178  3.291537  4.498053
   H ( 11)  2.836997  4.520134  4.473261  4.169896  4.821874  5.624314
   H ( 12)  2.887761  4.238549  4.443838  4.623558  4.817709  5.955823
   He( 13) 18.019814 19.668686 18.271783 18.536629 14.516653 14.385666
   He( 14) 17.180573 17.155792 15.812187 15.974636 16.425676 14.618051
             H (  7)   H (  8)   H (  9)   H ( 10)   H ( 11)   H ( 12)
   H (  8)  1.811625
   H (  9)  4.803371  6.026502
   H ( 10)  3.016557  4.235117  1.810394
   H ( 11)  4.012311  5.547422  1.812032  1.811216
   H ( 12)  4.260115  5.329487  1.811662  1.811206  1.811196
   He( 13) 15.472649 15.898369 16.183241 15.808310 16.461600 17.506362
   He( 14) 15.707249 15.623180 20.035900 18.486813 18.669984 19.573143
             He( 13)
   He( 14) 20.000000


 Q-Chem warning in module /home/nmayhall/qcSoftware/qchem/qchem.svn-casman/forms1/BasisType.C, line 1375:

 SAD: How to set up polarization functions for non-Pople basis?

 Requested basis set is rimp2-VDZ
 There are 82 shells and 186 basis functions
 Job number = 2, Threshold = 1.00E-11
Integral type ranges set in mkLRange.C for JobNum: 2  <1-7|1-7>
Symmetry turned off temporarily
 Using the largest function pair in Schwarz integrals
Total number of integrals generated =            1007
Symmetry turned back on
 A cutoff of  1.0D-11 yielded    281 shell pairs
 There are       281 function pairs
 Job number = 11, Threshold = 1.00E-11
Integral type ranges set in mkLRange.C for JobNum: 11  <1-1|8-8>

 -------------------------------------------------------
 OpenMP Integral Computing Module                       
 Release: version 1.0, May 2013, Q-Chem Inc. Pittsburgh 
 -------------------------------------------------------
 Integral Job Info:
 Integral job number is                      11
 Integral operator is                         1
 short-range coefficients                     0
 long-range coefficients              100000000
 Omega coefficients                           0
 if combine SR and LR in K                    0
 Integral screening is                        0
 Integral computing path is                   2
 max size of driver memory is            800000
 size of driver memory is                 11780
 size of scratch memory is               800000
 max col of scratch BK array                289
 max len of scratch array in speh3            1
 max len of scratch index in speh4            2
 max int batch size is                      520
 min int batch size is                       52
 fixed nKL is                               520
 max L of basis functions is                  0
 order of int derivative is                   0
 number of shells is                         28
 number of basis is                          28
 number of cartesian basis is                28
 number of contracted shell pairs           281
 number of primitive shell pairs            797
 maxK2 (contraction) of shell pair            9
 max number of K2 of shell pair               1
 max number of CS2 of shell pair            146
 max number of PS2 of shell pair            438
 mem total for path MDJ                    6768
 -------------------------------------------------------
 Smallest overlap matrix eigenvalue = 2.08E-01
 Multipole matrices computed through 2nd order

  Scale SEOQF with 1.000000e-02/1.000000e-02/1.000000e-02

 Standard Electronic Orientation quadrupole field applied
 Nucleus-field energy     =     0.0000000005 hartrees
GuessMan:  IGuess = 1
 Guess MOs from core Hamiltonian diagonalization
scfman initvdwdat 
 An unrestricted Hartree-Fock SCF calculation will be
 performed using Pulay DIIS extrapolation
 SCF converges when DIIS error is below 1.0E-08
Finding J and K together
 Job number = 22, Threshold = 1.00E-11
Integral type ranges set in mkLRange.C for JobNum: 22  <1-1|1-1>
Storing 4588.93% of integrals
Total number of integrals generated =           35332
 MakeJK  time:  CPU       0.01 s  wall       0.01 s
Fock build time:  0.01 s (CPU) 0.01 s (wall)
DIIS Errors:  Max 3.34E-01 RMS 2.93E-02

Current DIIS subspace size = 1
REM_GRID_RESTART_DIIS = 0

 ---------------------------------------
  Cycle       Energy         DIIS Error
 ---------------------------------------
    1      -9.5022061641      2.93E-02  00000
Finding J and K together
 Job number = 22, Threshold = 1.00E-11
Integral type ranges set in mkLRange.C for JobNum: 22  <1-1|1-1>
Storing 4588.93% of integrals
Reusing in-core integrals buffer for job 22
 MakeJK  time:  CPU       0.00 s  wall       0.00 s
Fock build time:  0.00 s (CPU) 0.00 s (wall)
DIIS Errors:  Max 2.54E-01 RMS 1.93E-02

Current DIIS subspace size = 2
REM_GRID_RESTART_DIIS = 0

    2     -11.3705239460      1.93E-02  00000
Finding J and K together
 Job number = 22, Threshold = 1.00E-11
Integral type ranges set in mkLRange.C for JobNum: 22  <1-1|1-1>
Storing 4588.93% of integrals
Reusing in-core integrals buffer for job 22
 MakeJK  time:  CPU       0.00 s  wall       0.00 s
Fock build time:  0.00 s (CPU) 0.00 s (wall)
DIIS Errors:  Max 1.08E-01 RMS 8.43E-03

Current DIIS subspace size = 3
REM_GRID_RESTART_DIIS = 0

    3     -11.4378515935      8.43E-03  00000
Finding J and K together
 Job number = 22, Threshold = 1.00E-11
Integral type ranges set in mkLRange.C for JobNum: 22  <1-1|1-1>
Storing 4588.93% of integrals
Reusing in-core integrals buffer for job 22
 MakeJK  time:  CPU       0.00 s  wall       0.00 s
Fock build time:  0.00 s (CPU) 0.00 s (wall)
DIIS Errors:  Max 9.40E-03 RMS 9.04E-04

Current DIIS subspace size = 4
REM_GRID_RESTART_DIIS = 0

    4     -11.4683376158      9.04E-04  00000
Finding J and K together
 Job number = 22, Threshold = 1.00E-11
Integral type ranges set in mkLRange.C for JobNum: 22  <1-1|1-1>
Storing 4588.93% of integrals
Reusing in-core integrals buffer for job 22
 MakeJK  time:  CPU       0.00 s  wall       0.00 s
Fock build time:  0.00 s (CPU) 0.00 s (wall)
DIIS Errors:  Max 1.43E-04 RMS 1.10E-05

Current DIIS subspace size = 5
REM_GRID_RESTART_DIIS = 0

    5     -11.4709729615      1.10E-05  00000
Finding J and K together
 Job number = 22, Threshold = 1.00E-11
Integral type ranges set in mkLRange.C for JobNum: 22  <1-1|1-1>
Storing 4588.93% of integrals
Reusing in-core integrals buffer for job 22
 MakeJK  time:  CPU       0.00 s  wall       0.00 s
Fock build time:  0.00 s (CPU) 0.00 s (wall)
DIIS Errors:  Max 1.06E-05 RMS 8.03E-07

Current DIIS subspace size = 6
REM_GRID_RESTART_DIIS = 0

    6     -11.4710789447      8.03E-07  00000
Finding J and K together
 Job number = 22, Threshold = 1.00E-11
Integral type ranges set in mkLRange.C for JobNum: 22  <1-1|1-1>
Storing 4588.93% of integrals
Reusing in-core integrals buffer for job 22
 MakeJK  time:  CPU       0.00 s  wall       0.00 s
Fock build time:  0.00 s (CPU) 0.00 s (wall)
DIIS Errors:  Max 7.10E-07 RMS 6.11E-08

Current DIIS subspace size = 7
REM_GRID_RESTART_DIIS = 0

    7     -11.4710956185      6.11E-08  00000
Finding J and K together
 Job number = 22, Threshold = 1.00E-11
Integral type ranges set in mkLRange.C for JobNum: 22  <1-1|1-1>
Storing 4588.93% of integrals
Reusing in-core integrals buffer for job 22
 MakeJK  time:  CPU       0.00 s  wall       0.00 s
Fock build time:  0.00 s (CPU) 0.00 s (wall)
DIIS Errors:  Max 1.72E-07 RMS 1.29E-08

Current DIIS subspace size = 8
REM_GRID_RESTART_DIIS = 0

    8     -11.4710986867      1.29E-08  00000
Finding J and K together
 Job number = 22, Threshold = 1.00E-11
Integral type ranges set in mkLRange.C for JobNum: 22  <1-1|1-1>
Storing 4588.93% of integrals
Reusing in-core integrals buffer for job 22
 MakeJK  time:  CPU       0.00 s  wall       0.00 s
Fock build time:  0.00 s (CPU) 0.00 s (wall)
DIIS Errors:  Max 9.52E-09 RMS 6.99E-10

Current DIIS subspace size = 9
REM_GRID_RESTART_DIIS = 0

    9     -11.4710989831      6.99E-10  00000 Convergence criterion met
 ---------------------------------------
 <S^2> = 42.0000
 SCF time:  CPU 0.04 s  wall 0.05 s
 SCF   energy in the final basis set = -11.4710989831
 Total energy in the final basis set = -11.4710989831
Symmetry turned off temporarily
 Analysis of SCF Wavefunction

 --------------------------------------------------------------

                    Orbital Energies (a.u.)
 --------------------------------------------------------------

 Alpha MOs
 -- Occupied --
 -0.914  -0.914  -0.710  -0.701  -0.698  -0.470  -0.467  -0.460
 -0.455  -0.454  -0.452  -0.447  -0.441  -0.437
 -- Virtual --
  0.818   0.859   0.875   0.905   0.918   0.928   0.968   0.976
  0.995   1.057   1.137   1.153   1.400   1.400

 Beta MOs
 -- Occupied --
 -0.914  -0.914
 -- Virtual --
 -0.051  -0.036  -0.033   0.135   0.143   0.151   0.160   0.163
  0.166   0.178   0.189   0.196   1.042   1.075   1.087   1.111
  1.122   1.130   1.165   1.173   1.192   1.260   1.334   1.349
  1.400   1.400
 --------------------------------------------------------------

          Ground-State Mulliken Net Atomic Charges

     Atom                 Charge (a.u.)    Spin (a.u.)
  --------------------------------------------------------
      1 H                     0.000084       0.999916
      2 H                     0.000017       0.999983
      3 H                    -0.000013       1.000013
      4 H                     0.000003       0.999997
      5 H                    -0.000021       1.000021
      6 H                     0.000015       0.999985
      7 H                     0.000019       0.999981
      8 H                    -0.000019       1.000019
      9 H                     0.000068       0.999932
     10 H                    -0.000010       1.000010
     11 H                    -0.000072       1.000072
     12 H                    -0.000073       1.000073
     13 He                    0.000000       0.000000
     14 He                    0.000000      -0.000000
  --------------------------------------------------------
  Sum of atomic charges =     0.000000
  Sum of spin   charges =    12.000000

 -----------------------------------------------------------------
                    Cartesian Multipole Moments
 -----------------------------------------------------------------
    Charge (ESU x 10^10)
                -0.0000
    Dipole Moment (Debye)
         X      -0.0003      Y      -0.0005      Z       0.0003
       Tot       0.0007
    Quadrupole Moments (Debye-Ang)
        XX     -19.6209     XY       0.0149     YY     -19.5470
        XZ      -0.0002     YZ      -0.0095     ZZ     -19.5123
    Octopole Moments (Debye-Ang^2)
       XXX     -19.5157    XXY     -35.1363    XYY      -4.8424
       YYY    -108.1704    XXZ     -22.9142    XYZ      -0.0112
       YYZ     -23.8176    XZZ      -4.1125    YZZ     -35.0682
       ZZZ     -70.7098
    Hexadecapole Moments (Debye-Ang^3)
      XXXX   -1642.5991   XXXY     -12.5125   XXYY    -570.9771
      XYYY     -10.6402   YYYY   -1767.9584   XXXZ       3.4218
      XXYZ    -214.5177   XYYZ       0.0685   YYYZ    -652.7795
      XXZZ    -491.0286   XYZZ      -3.4054   YYZZ    -520.8243
      XZZZ       4.4610   YZZZ    -647.6085   ZZZZ   -1318.2269
 -----------------------------------------------------------------
 JobOver = TRUE
Archival summary:
1\1\sinatra\SP\HF\6-31G*\e212()\nmayhall\MonMar2016:11:022017MonMar2016:11:022017\0\\#,HF,6-31G*,\\0,13\H\H,1,1.8108\H,2,1.8111,1,60.0291\H,3,1.81133,2,60.0389,1,70.5227,0\H,1,2.837,2,152.386,3,178.05,0\H,5,1.8112,1,73.0863,2,-68.5028,0\H,6,1.81121,5,60.0005,1,-92.9521,0\H,7,1.81039,6,60.0315,5,-70.571,0\H,7,3.01656,6,121.864,5,95.9577,0\H,9,1.81065,7,135.973,6,162.925,0\H,9,1.81086,7,81.8723,6,133.792,0\H,10,1.81131,9,60.0237,7,-104.31,0\He,10,14.3857,9,124.061,7,34.0454,0\He,10,14.6181,9,124.196,7,146.862,0\\HF=-11.471099\\@

 Total job time:  0.10s(wall), 0.10s(cpu) 
 Mon Mar 20 16:11:02 2017

        *************************************************************
        *                                                           *
        *  Thank you very much for using Q-Chem.  Have a nice day.  *
        *                                                           *
        *************************************************************


*** MISSION COMPLETED -- STARFLEET OUT ***

 
User input: 2 of 2 
 
                  Welcome to Q-Chem
     A Quantum Leap Into The Future Of Chemistry


 Q-Chem 4.3, Q-Chem, Inc., Pleasanton, CA (2015)

 Y. Shao,  Z. Gan,  E. Epifanovsky,  A. T. B. Gilbert,  M. Wormit,  
 J. Kussmann,  A. W. Lange,  A. Behn,  J. Deng,  X. Feng,  D. Ghosh,  
 M. Goldey,  P. R. Horn,  L. D. Jacobson,  I. Kaliman,  R. Z. Khaliullin,  
 T. Kus,  A. Landau,  J. Liu,  E. I. Proynov,  Y. M. Rhee,  R. M. Richard,  
 M. A. Rohrdanz,  R. P. Steele,  E. J. Sundstrom,  H. L. Woodcock III,  
 P. M. Zimmerman,  D. Zuev,  B. Albrecht,  E. Alguire,  B. Austin,  
 S. A. Baeppler,  G. J. O. Beran,  Y. A. Bernard,  E. Berquist,  
 K. Brandhorst,  K. B. Bravaya,  S. T. Brown,  D. Casanova,  C.-M. Chang,  
 Y. Chen,  S. H. Chien,  K. D. Closser,  D. L. Crittenden,  M. Diedenhofen,  
 R. A. DiStasio Jr.,  H. Do,  A. D. Dutoi,  R. G. Edgar,  P.-T. Fang,  
 S. Fatehi,  Q. Feng,  L. Fusti-Molnar,  A. Ghysels,  
 A. Golubeva-Zadorozhnaya,  J. Gomes,  A. Gunina,  M. W. D. Hanson-Heine,  
 P. H. P. Harbach,  A. W. Hauser,  E. G. Hohenstein,  Z. C. Holden,  K. Hui,  
 T.-C. Jagau,  H. Ji,  B. Kaduk,  K. Khistyaev,  Jaehoon Kim,  Jihan Kim,  
 R. A. King,  P. Klunzinger,  D. Kosenkov,  T. Kowalczyk,  C. M. Krauter,  
 K. U. Lao,  A. Laurent,  K. V. Lawler,  S. Lehtola,  S. V. Levchenko,  
 C. Y. Lin,  Y.-S. Lin,  F. Liu,  E. Livshits,  R. C. Lochan,  A. Luenser,  
 P. Manohar,  S. F. Manzer,  S.-P. Mao,  N. Mardirossian,  A. V. Marenich,  
 L. A. Martinez-Martinez,  S. A. Maurer,  N. J. Mayhall,  K. Nanda,  
 C. M. Oana,  R. Olivares-Amaya,  D. P. O'Neill,  J. A. Parkhill,  
 T. M. Perrine,  R. Peverati,  P. A. Pieniazek,  F. Plasser,  A. Prociuk,  
 D. R. Rehn,  E. Rosta,  N. J. Russ,  N. Sergueev,  S. M. Sharada,  
 S. Sharma,  D. W. Small,  A. Sodt,  T. Stauch,  T. Stein,  D. Stuck,  
 Y.-C. Su,  A. J. W. Thom,  T. Tsuchimochi,  L. Vogt,  O. Vydrov,  T. Wang,  
 M. A. Watson,  J. Wenzel,  A. White,  C. F. Williams,  V. Vanovschi,  
 S. Yeganeh,  S. R. Yost,  Z.-Q. You,  I. Y. Zhang,  X. Zhang,  Y. Zhao,  
 B. R. Brooks,  G. K. L. Chan,  D. M. Chipman,  C. J. Cramer,  
 W. A. Goddard III,  M. S. Gordon,  W. J. Hehre,  A. Klamt,  
 H. F. Schaefer III,  M. W. Schmidt,  C. D. Sherrill,  D. G. Truhlar,  
 A. Warshel,  X. Xu,  A. Aspuru-Guzik,  R. Baer,  A. T. Bell,  N. A. Besley,  
 J.-D. Chai,  A. Dreuw,  B. D. Dunietz,  T. R. Furlani,  S. R. Gwaltney,  
 C.-P. Hsu,  Y. Jung,  J. Kong,  D. S. Lambrecht,  W. Liang,  C. Ochsenfeld,  
 V. A. Rassolov,  L. V. Slipchenko,  J. E. Subotnik,  T. Van Voorhis,  
 J. M. Herbert,  A. I. Krylov,  P. M. W. Gill,  M. Head-Gordon

 Contributors to earlier versions of Q-Chem not listed above: 
 R. D. Adamson,  J. Baker,  E. F. C. Byrd,  A. K. Chakraborty,  C.-L. Cheng,  
 H. Dachsel,  R. J. Doerksen,  G. Hawkins,  A. Heyden,  S. Hirata,  
 G. Kedziora,  F. J. Keil,  C. Kelley,  P. P. Korambath,  W. Kurlancheek,  
 A. M. Lee,  M. S. Lee,  D. Liotard,  I. Lotan,  P. E. Maslen,  N. Nair,  
 D. Neuhauser,  R. Olson,  B. Peters,  J. Ritchie,  N. E. Schultz,  
 N. Shenvi,  A. C. Simmonett,  K. S. Thanthiriwatte,  Q. Wu,  W. Zhang

 Please cite Q-Chem as follows:
 Y. Shao et al., Mol. Phys. 113, 184-215 (2015)
 DOI: 10.1080/00268976.2014.952696

 Q-Chem 4.3.0 for Intel X86 EM64T Linux

 Parts of Q-Chem use Armadillo 5.200.1 (Boston Tea Smuggler).
 http://arma.sourceforge.net/

 Q-Chem begins on Mon Mar 20 16:11:02 2017  


Host: 0

     Scratch files written to /home/nmayhall/scratch_qchem/06//
 Dec1416 |home|nmayhall|qcSoftware|qchem|qchem.svn-casman|libmdc|qstr_RNUM -1
 Using version located at /home/nmayhall/qcSoftware/qchem/qchem.svn-casman/bin/qchem

 Turning off symmetry for CASMAN

Total Memory Limit in MB = 2000
Mega-Array Size in MB = 62

Checking the input file for inconsistencies... 	...done.

 Q-Chem warning in module /home/nmayhall/qcSoftware/qchem/qchem.svn-casman/forms1/BasisType.C, line 1452:

 You are not using the predefined 5D/6D in this basis set.

Finally everything over in PARseQInput

--------------------------------------------------------------
User input:
--------------------------------------------------------------
$rem
	exchange 		hf
	unrestricted		0
	basis			6-31g*	
	aux_basis		rimp2-vdz
	scf_guess		read	
	scf_convergence		8
	purecart		1111

	symmetry		0
	sym_ignore		1

	correlation		sf-cas
	cas_n_spin_flip		1
	cas_local		1
	gui			2
$end

$development
	1sf_heis_projection	1
	scf_corresponding_orbs	1
$end

$molecule
read
$end

--------------------------------------------------------------
 ----------------------------------------------------------------
             Standard Nuclear Orientation (Angstroms)
    I     Atom           X                Y                Z
 ----------------------------------------------------------------
    1      H      -0.7385400000    -0.5406500000     0.0857600000
    2      H      -2.3134000000    -1.0174800000    -0.6701700000
    3      H      -2.0958200000     0.6554900000    -0.0114600000
    4      H      -2.2104400000    -0.7543700000     1.1199500000
    5      H       1.4767400000     3.6720300000     0.0982800000
    6      H       0.1685000000     4.2602200000     1.2054600000
    7      H       0.1828700000     2.5348000000     0.6566800000
    8      H      -0.2168600000     3.8552800000    -0.5174300000
    9      H       3.4885000000    -0.8755300000    -0.0608400000
   10      H       2.2964900000     0.4857800000    -0.0019100000
   11      H       1.9396000000    -1.0667600000     0.8599200000
   12      H       1.9158800000    -1.0096500000    -0.9502200000
   13      He     10.0000000000    10.0000000000    10.0000000000
   14      He    -10.0000000000    10.0000000000    10.0000000000
 ----------------------------------------------------------------
 Nuclear Repulsion Energy =    12.5439205250 hartrees
 There are       14 alpha and        2 beta electrons
 Requested basis set is 6-31G(d)
 There are 28 shells and 28 basis functions

Total QAlloc Memory Limit   2000 MB
Mega-Array Size        61 MB
MEM_STATIC part        62 MB

finished with qalloc call

                       Distance Matrix (Angstroms)
             H (  1)   H (  2)   H (  3)   H (  4)   H (  5)   H (  6)
   H (  2)  1.810796
   H (  3)  1.811743  1.811096
   H (  4)  1.811550  1.812280  1.811334
   H (  5)  4.759653  6.078419  4.677044  5.850822
   H (  6)  5.012465  6.126331  4.427428  5.550926  1.811990
   H (  7)  3.260880  4.539889  3.028307  4.094043  1.810857  1.810646
   H (  8)  4.467683  5.306845  3.745017  5.282447  1.811342  1.811306
   H (  9)  4.242818  5.835536  5.790604  5.821242  4.975219  6.245146
   H ( 10)  3.205098  4.894635  4.395598  4.807178  3.291537  4.498053
   H ( 11)  2.836997  4.520134  4.473261  4.169896  4.821874  5.624314
   H ( 12)  2.887761  4.238549  4.443838  4.623558  4.817709  5.955823
   He( 13) 18.019814 19.668686 18.271783 18.536629 14.516653 14.385666
   He( 14) 17.180573 17.155792 15.812187 15.974636 16.425676 14.618051
             H (  7)   H (  8)   H (  9)   H ( 10)   H ( 11)   H ( 12)
   H (  8)  1.811625
   H (  9)  4.803371  6.026502
   H ( 10)  3.016557  4.235117  1.810394
   H ( 11)  4.012311  5.547422  1.812032  1.811216
   H ( 12)  4.260115  5.329487  1.811662  1.811206  1.811196
   He( 13) 15.472649 15.898369 16.183241 15.808310 16.461600 17.506362
   He( 14) 15.707249 15.623180 20.035900 18.486813 18.669984 19.573143
             He( 13)
   He( 14) 20.000000


 Q-Chem warning in module /home/nmayhall/qcSoftware/qchem/qchem.svn-casman/forms1/BasisType.C, line 1375:

 SAD: How to set up polarization functions for non-Pople basis?

 Requested basis set is rimp2-VDZ
 There are 82 shells and 186 basis functions
 Job number = 2, Threshold = 1.00E-12
Integral type ranges set in mkLRange.C for JobNum: 2  <1-7|1-7>
Symmetry turned off temporarily
 Using the largest function pair in Schwarz integrals
Total number of integrals generated =            1009
Symmetry turned back on
 A cutoff of  1.0D-12 yielded    283 shell pairs
 There are       283 function pairs
 Job number = 11, Threshold = 1.00E-12
Integral type ranges set in mkLRange.C for JobNum: 11  <1-1|8-8>

 -------------------------------------------------------
 OpenMP Integral Computing Module                       
 Release: version 1.0, May 2013, Q-Chem Inc. Pittsburgh 
 -------------------------------------------------------
 Integral Job Info:
 Integral job number is                      11
 Integral operator is                         1
 short-range coefficients                     0
 long-range coefficients              100000000
 Omega coefficients                           0
 if combine SR and LR in K                    0
 Integral screening is                        0
 Integral computing path is                   2
 max size of driver memory is            800000
 size of driver memory is                 11780
 size of scratch memory is               800000
 max col of scratch BK array                289
 max len of scratch array in speh3            1
 max len of scratch index in speh4            2
 max int batch size is                      520
 min int batch size is                       52
 fixed nKL is                               520
 max L of basis functions is                  0
 order of int derivative is                   0
 number of shells is                         28
 number of basis is                          28
 number of cartesian basis is                28
 number of contracted shell pairs           283
 number of primitive shell pairs            805
 maxK2 (contraction) of shell pair            9
 max number of K2 of shell pair               1
 max number of CS2 of shell pair            146
 max number of PS2 of shell pair            438
 mem total for path MDJ                    6768
 -------------------------------------------------------
 Smallest overlap matrix eigenvalue = 2.08E-01
 Multipole matrices computed through 2nd order

  Scale SEOQF with 1.000000e-02/1.000000e-02/1.000000e-02

 Standard Electronic Orientation quadrupole field applied
 Nucleus-field energy     =     0.0000000005 hartrees
GuessMan:  IGuess = 1000
 Guess MOs from SCF MO coefficient file
 Reading MOs from coefficient file
 Reading MOs from coefficient file
scfman initvdwdat 
 A restricted Hartree-Fock SCF calculation will be
 performed using Geometric Direct Minimization
 SCF converges when RMS gradient is below 1.0E-08
Finding J and K together
 Job number = 22, Threshold = 1.00E-12
Integral type ranges set in mkLRange.C for JobNum: 22  <1-1|1-1>
Storing 4524.42% of integrals
Total number of integrals generated =           36706
 MakeJK  time:  CPU       0.01 s  wall       0.01 s
Fock build time:  0.01 s (CPU) 0.01 s (wall)
 ---------------------------------------
  Cycle       Energy        RMS Gradient
 ---------------------------------------
    1     -11.4710990106      9.81E-05  00000 Normal BFGS step
Finding J and K together
 Job number = 22, Threshold = 1.00E-12
Integral type ranges set in mkLRange.C for JobNum: 22  <1-1|1-1>
Storing 4524.42% of integrals
Reusing in-core integrals buffer for job 22
 MakeJK  time:  CPU       0.00 s  wall       0.00 s
Fock build time:  0.00 s (CPU) 0.00 s (wall)
    2     -11.4710990157      4.17E-10  00000 Convergence criterion met
 ---------------------------------------
 SCF time:  CPU 0.02 s  wall 0.02 s
 Obtaining Corresponding orbitals

 Forming corresponding orbitals block-by-block...
 Size of singly occupied alpha block:      12 : 12.0000
 Size of doubly occupied block:             2 : 2.0000
 Size of singly occupied beta block:        0 : 0.0000
 Size of unoccupied block:                 14 : 14.0000
 Use scf_boys =     0 (Canonical)
                    1 (Boys)
                    2 (Pipek-Mezey)
                    3 (ER)
 Build new fock matrix
 I'm here
 I'm here
 Calling AOints...
 Job number = 22, Threshold = 1.00E-12
Integral type ranges set in mkLRange.C for JobNum: 22  <1-1|1-1>
Storing 4524.42% of integrals
 done.
 E(SCF): disk=    -11.471099015744 current=    -11.471099015744 diff=  -8.882e-15
 SCF   energy in the final basis set = -11.4710990157
 Total energy in the final basis set = -11.4710990157
 DevKeyword Parameters: 
 1sf_heis_projection                   1
scf_corresponding_orbs                   1


 ========================================================
                       In SF-CAS-CI                      
 ========================================================
 DevKeyword Parameters: 
 1sf_heis_projection                   1
scf_corresponding_orbs                   1

 Forming orbitals for SF-CAS calculation.
NBas   : 28
NOrb   : 28
NDOcc  : 2
NSOcc  : 12
NDVir  : 14
ISpin  : 0
e_hf: -11.47109902
 Using OPT1 Orbitals: Favg | Favg | Favg 
 A/B mix in Doubly occupied F  : 0.50000000
 A/B mix in Singly occupied F  : 0.50000000
 A/B mix in Doubly unoccupied F: 0.50000000
 Max of F(beta)ds      : 3.788e-16
 Max of F(alpha)sv     : 2.734e-12
 Max of F(average)dv   : 2.399e-11
 Orbital Energies  (D):
    1    -0.91413146    -0.91413146
    2    -0.91412566    -0.91412566
 Orbital Energies  (S):
    3    -0.36696088    -0.36696088
    4    -0.35589157    -0.35589157
    5    -0.35290549    -0.35290549
    6    -0.14627765    -0.14627765
    7    -0.14199418    -0.14199418
    8    -0.13426838    -0.13426838
    9    -0.12854999    -0.12854999
   10    -0.12651284    -0.12651284
   11    -0.12464560    -0.12464560
   12    -0.11740882    -0.11740882
   13    -0.10990899    -0.10990899
   14    -0.10515704    -0.10515704
 Orbital Energies  (V):
   15     0.90868216     0.90868216
   16     0.94672527     0.94672527
   17     0.96099129     0.96099129
   18     0.98880925     0.98880925
   19     1.00159353     1.00159353
   20     1.01085974     1.01085974
   21     1.04927880     1.04927880
   22     1.05811041     1.05811041
   23     1.07780777     1.07780777
   24     1.14519875     1.14519875
   25     1.22320593     1.22320593
   26     1.23911781     1.23911781
   27     1.39985451     1.39985451
   28     1.39986030     1.39986030
 tr(Pa)     :   14.0000000000
 tr(Pb)     :    2.0000000000
 E(core) with new P : -38.18173515
 E(HF) with new P   : -11.47109902
 Difference in Ehf  :  -2.6645e-14

 Number of spin flips: 1
 Use cas_local =    0 (Canonical)
                    1 (Boys)
                    2 (Pipek-Mezey)
                    3 (ER)
 Using Boys orbitals in casman
 
 
 
Calling Get_Boys in C++
 
 
 
Orbital 8 Variance 13.14781685
Orbital 2 Variance 21.36076810
Orbital 9 Variance 22.06065659
Orbital 3 Variance 23.46415365
Orbital 5 Variance 24.94349659
Orbital 12 Variance 24.98848185
Orbital 7 Variance 25.98515732
Orbital 1 Variance 27.83279625
Orbital 6 Variance 28.00370507
Orbital 10 Variance 28.27799496
Orbital 11 Variance 29.00250942
Orbital 4 Variance 30.75861132
          ***** NUMBER OF SADDLE POINTS SO FAR = 0 ******

Initially in boys_jacobi.C before sweep, get_boys, boysval = 118.641563
In BOYS_JACOBI SWEEPS for get_boys, ending in round     6  because max_diff = 8.324369e-07


---> BEGIN 2nd Der Calculation    ******  
Guessing MaxD =  20 and MinD = 10
in get_boys.C: p = 0 guessthresh  52.5736637198 numsofar 18 MinD 10
in get_boys.C: p = 1 guessthresh  52.0736637198 numsofar 18 MinD 10
in get_boys.C: p = 2 guessthresh  51.8236637198 numsofar 18 MinD 10
in get_boys.C: p = 3 guessthresh  51.6986637198 numsofar 6 MinD 10
DimInGuess 6 mineval  51.5736637198 guessthresh  51.6986637198
round 0 sizeofsub 6 eval0 5.095685e+01 diffeval0 1.000500e+05 length_qM 1.110158e+00 thresh 1.000000e-08
round 1 sizeofsub 7 eval0 5.036289e+01 diffeval0 5.939592e-01 length_qM 1.078711e-01 thresh 1.000000e-08
round 2 sizeofsub 8 eval0 5.036223e+01 diffeval0 6.553333e-04 length_qM 2.200104e-01 thresh 1.000000e-08
round 3 sizeofsub 9 eval0 5.036091e+01 diffeval0 1.323588e-03 length_qM 1.741982e-02 thresh 1.000000e-08
round 4 sizeofsub 10 eval0 5.036091e+01 diffeval0 1.859309e-06 length_qM 1.873212e-03 thresh 1.000000e-08
round 5 sizeofsub 11 eval0 5.036090e+01 diffeval0 1.057215e-06 length_qM 2.811102e-03 thresh 1.000000e-08
round 6 sizeofsub 12 eval0 5.036090e+01 diffeval0 8.662675e-07 length_qM 1.447229e-03 thresh 1.000000e-08
round 7 sizeofsub 13 eval0 5.036090e+01 diffeval0 8.538805e-09 length_qM 1.427953e-05 thresh 1.000000e-08
round 8 sizeofsub 14 eval0 5.036090e+01 diffeval0 4.057199e-12 length_qM 2.232772e-06 thresh 1.000000e-08
round 9 sizeofsub 15 eval0 5.036090e+01 diffeval0 5.087486e-12 length_qM 1.785667e-05 thresh 1.000000e-08
round 10 sizeofsub 16 eval0 5.036090e+01 diffeval0 2.550848e-12 length_qM 6.329260e-07 thresh 1.000000e-08
Converged to smallest eigenvalue: eval0 5.036090e+01

Success!!! No Negative Eigenvalues: Ending Get Boys in C++ ...Bye Bye
Orbital 12 Variance 2.76481243
Orbital 11 Variance 2.76924280
Orbital 9 Variance 2.77116705
Orbital 5 Variance 2.77259771
Orbital 6 Variance 2.77310996
Orbital 4 Variance 2.77327390
Orbital 3 Variance 2.77557293
Orbital 7 Variance 2.77611110
Orbital 10 Variance 2.77620942
Orbital 1 Variance 2.77635228
Orbital 8 Variance 2.77636231
Orbital 2 Variance 2.77647978
EXECUTING ORTHO_FUNC DESTRUCTOR

 Dimensions of orbital sub-spaces:    
 Number Hole Orbs:Alpha:Beta:       2    2    2
 Number Active Orbs:Alpha:Beta:    12   11    1
 Number Part Orbs:Alpha:Beta:      14    0    0

 Dimensions in SF-RAS-hp calculation: 
 Number of active space determinants:  144
 Number of hole space determinants:    1608
 Number of part space determinants:    11256
 Number of hole-part determinants:     130060
 Total 1x space:                       13008
 Total singles space:                  143068
 REM_MEM_TOT: 2000
 Memory Used: 0
 Memory Left: 2000
 Memory Need: 2
 Constructing 1e MO integrals
 Form (P|Q)**(-1/2)...
 Job number = 66, Threshold = 1.00E-12
Integral type ranges set in mkLRange.C for JobNum: 66  <2-7|2-7>
Symmetry turned off temporarily
Storing 4524.42% of integrals
Total number of integrals generated =           19965
Symmetry turned back on
 Forming (pq|P)...
 Forming Active-Active (aa|P) integrals...

 Entering first-index batching code with I1Strt =    3 batch size =   12
 Job number = 65, Threshold = 1.00E-12
Integral type ranges set in mkLRange.C for JobNum: 65  <1-1|2-7>
Symmetry turned off temporarily
Storing 4524.42% of integrals
Total number of integrals generated =           56034
Symmetry turned back on
 Forming Active-Active B integrals...
 Contracting B matrices to form 2e integrals. 
 Forming 2J-K over o,v with exact integrals
 Calling AOints... Job number = 22, Threshold = 1.00E-12
Integral type ranges set in mkLRange.C for JobNum: 22  <1-1|1-1>
Storing 4524.42% of integrals
Total number of integrals generated =           36706
 done.

 ROHF energy found on disk: 
 E(ROHF):         -11.47109902
-11.47109902
 First 10 Diagonal elements of H: 
 11111111111_ | 1___________        -11.07839531
 11111111111_ | _1__________        -10.91146974
 11111111111_ | __1_________        -10.93092530
 11111111111_ | ___1________        -11.07766465
 11111111111_ | ____1_______        -10.99176795
 11111111111_ | _____1______        -10.97233601
 11111111111_ | ______1_____        -11.07826222
 11111111111_ | _______1____        -10.92462126
 11111111111_ | ________1___        -10.99475156
 11111111111_ | _________1__        -10.91698493
 Fill S2_CAS Matrix...  done.
 Fill H_CAS Matrix...  done.

 Diagonalizing H_CAS 
 Entering cast_sfcas_to_sfcis
 ===================================================================
 Theory           State:          Energy (au)       (eV)       <S2>
 -------------------------------------------------------------------
 SF-CAS               1:       -11.5293629652     0.0000    30.0000
 SF-CAS               2:       -11.5287719028     0.0161    30.0000
 SF-CAS               3:       -11.5280058562     0.0369    30.0000
 SF-CAS               4:       -11.5277985077     0.0426    30.0000
 SF-CAS               5:       -11.5275156953     0.0503    30.0000
 SF-CAS               6:       -11.5274837085     0.0511    30.0000
 SF-CAS               7:       -11.5274155768     0.0530    30.0000
 SF-CAS               8:       -11.5272864633     0.0565    30.0000
 SF-CAS               9:       -11.5272365964     0.0579    30.0000
 SF-CAS              10:       -11.4724474735     1.5488    30.0000
 SF-CAS              11:       -11.4718743668     1.5644    30.0000
 SF-CAS              12:       -11.4710990157     1.5855    42.0000
 SF-CAS              13:       -11.2089979633     8.7177    30.0000
 SF-CAS              14:       -11.2049018496     8.8291    30.0000
 SF-CAS              15:       -11.2035380045     8.8662    30.0000
 SF-CAS              16:       -11.2031578877     8.8766    30.0000
 SF-CAS              17:       -11.2027606796     8.8874    30.0000
 SF-CAS              18:       -11.2021652172     8.9036    30.0000
 SF-CAS              19:       -11.2020426149     8.9069    30.0000
 SF-CAS              20:       -11.2017218040     8.9157    30.0000
 SF-CAS              21:       -11.2015572148     8.9201    30.0000
 SF-CAS              22:       -11.1829830256     9.4256    30.0000
 SF-CAS              23:       -11.1784153629     9.5499    30.0000
 SF-CAS              24:       -11.1729088665     9.6997    30.0000
 SF-CAS              25:       -11.1720173855     9.7240    30.0000
 SF-CAS              26:       -11.1677966104     9.8388    30.0000
 SF-CAS              27:       -11.1657848403     9.8936    30.0000
 SF-CAS              28:       -11.1591623580    10.0738    30.0000
 SF-CAS              29:       -11.1551358968    10.1833    30.0000
 SF-CAS              30:       -11.1514750439    10.2830    30.0000
 SF-CAS              31:       -11.1452017005    10.4537    30.0000
 SF-CAS              32:       -11.1443009672    10.4782    30.0000
 SF-CAS              33:       -11.1420170291    10.5403    30.0000
 SF-CAS              34:       -11.1395181128    10.6083    30.0000
 SF-CAS              35:       -11.1393969916    10.6116    30.0000
 SF-CAS              36:       -11.1318044628    10.8182    30.0000
 SF-CAS              37:       -11.1313428271    10.8308    30.0000
 SF-CAS              38:       -11.1266799755    10.9577    30.0000
 SF-CAS              39:       -11.1257389551    10.9833    30.0000
 SF-CAS              40:       -11.0866868268    12.0459    30.0000
 SF-CAS              41:       -11.0860994516    12.0619    30.0000
 SF-CAS              42:       -11.0855283717    12.0775    30.0000
 SF-CAS              43:       -11.0852983593    12.0837    30.0000
 SF-CAS              44:       -11.0848379380    12.0963    30.0000
 SF-CAS              45:       -11.0846635131    12.1010    30.0000
 SF-CAS              46:       -11.0824824394    12.1604    30.0000
 SF-CAS              47:       -11.0822034974    12.1679    30.0000
 SF-CAS              48:       -11.0814561449    12.1883    30.0000
 SF-CAS              49:       -11.0811831421    12.1957    30.0000
 SF-CAS              50:       -11.0809465695    12.2022    30.0000
 SF-CAS              51:       -11.0805042878    12.2142    30.0000
 SF-CAS              52:       -11.0803370652    12.2187    30.0000
 SF-CAS              53:       -11.0794021248    12.2442    30.0000
 SF-CAS              54:       -11.0784867423    12.2691    30.0000
 SF-CAS              55:       -11.0783516804    12.2728    30.0000
 SF-CAS              56:       -11.0778738559    12.2858    30.0000
 SF-CAS              57:       -11.0758197214    12.3417    30.0000
 SF-CAS              58:       -10.9860927768    14.7833    30.0000
 SF-CAS              59:       -10.9837731709    14.8464    30.0000
 SF-CAS              60:       -10.9820658162    14.8929    30.0000
 SF-CAS              61:       -10.9789722241    14.9770    30.0000
 SF-CAS              62:       -10.9781758693    14.9987    30.0000
 SF-CAS              63:       -10.9737522854    15.1191    30.0000
 SF-CAS              64:       -10.9673158825    15.2942    30.0000
 SF-CAS              65:       -10.9667481630    15.3097    30.0000
 SF-CAS              66:       -10.9597714731    15.4995    30.0000
 SF-CAS              67:       -10.9582739773    15.5403    30.0000
 SF-CAS              68:       -10.9535708985    15.6683    30.0000
 SF-CAS              69:       -10.9513881525    15.7276    30.0000
 SF-CAS              70:       -10.9502568159    15.7584    30.0000
 SF-CAS              71:       -10.9484543054    15.8075    30.0000
 SF-CAS              72:       -10.9480467512    15.8186    30.0000
 SF-CAS              73:       -10.9463729036    15.8641    30.0000
 SF-CAS              74:       -10.9455540792    15.8864    30.0000
 SF-CAS              75:       -10.9437907485    15.9344    30.0000
 SF-CAS              76:       -10.9421883441    15.9780    30.0000
 SF-CAS              77:       -10.9408437901    16.0146    30.0000
 SF-CAS              78:       -10.9386466538    16.0744    30.0000
 SF-CAS              79:       -10.9380343421    16.0910    30.0000
 SF-CAS              80:       -10.9372846051    16.1114    30.0000
 SF-CAS              81:       -10.9357637695    16.1528    30.0000
 SF-CAS              82:       -10.9347963171    16.1791    30.0000
 SF-CAS              83:       -10.9339784186    16.2014    30.0000
 SF-CAS              84:       -10.9315783569    16.2667    30.0000
 SF-CAS              85:       -10.9301204312    16.3064    30.0000
 SF-CAS              86:       -10.9287858334    16.3427    30.0000
 SF-CAS              87:       -10.9272383954    16.3848    30.0000
 SF-CAS              88:       -10.9268305879    16.3959    30.0000
 SF-CAS              89:       -10.9251969701    16.4404    30.0000
 SF-CAS              90:       -10.9242392908    16.4664    30.0000
 SF-CAS              91:       -10.9233522347    16.4906    30.0000
 SF-CAS              92:       -10.9217010783    16.5355    30.0000
 SF-CAS              93:       -10.9209741076    16.5553    30.0000
 SF-CAS              94:       -10.9200481814    16.5805    30.0000
 SF-CAS              95:       -10.9191632752    16.6045    30.0000
 SF-CAS              96:       -10.9166884916    16.6719    30.0000
 SF-CAS              97:       -10.9165261102    16.6763    30.0000
 SF-CAS              98:       -10.9158124362    16.6957    30.0000
 SF-CAS              99:       -10.9141524334    16.7409    30.0000
 SF-CAS             100:       -10.9139044257    16.7476    30.0000
 SF-CAS             101:       -10.9124823457    16.7863    30.0000
 SF-CAS             102:       -10.9112478823    16.8199    30.0000
 SF-CAS             103:       -10.9109085288    16.8292    30.0000
 SF-CAS             104:       -10.9093509312    16.8716    30.0000
 SF-CAS             105:       -10.9088990955    16.8838    30.0000
 SF-CAS             106:       -10.9083003885    16.9001    30.0000
 SF-CAS             107:       -10.9063187609    16.9541    30.0000
 SF-CAS             108:       -10.9040941938    17.0146    30.0000
 SF-CAS             109:       -10.9037935834    17.0228    30.0000
 SF-CAS             110:       -10.9035796177    17.0286    30.0000
 SF-CAS             111:       -10.9028483193    17.0485    30.0000
 SF-CAS             112:       -10.8983207787    17.1717    30.0000
 SF-CAS             113:       -10.8978901487    17.1834    30.0000
 SF-CAS             114:       -10.8970367305    17.2066    30.0000
 SF-CAS             115:       -10.8939322317    17.2911    30.0000
 SF-CAS             116:       -10.8921328311    17.3401    30.0000
 SF-CAS             117:       -10.8890135201    17.4250    30.0000
 SF-CAS             118:       -10.8849144090    17.5365    30.0000
 SF-CAS             119:       -10.8848785121    17.5375    30.0000
 SF-CAS             120:       -10.8838162424    17.5664    30.0000
 SF-CAS             121:       -10.8833209479    17.5799    30.0000
 SF-CAS             122:       -10.8817970018    17.6213    30.0000
 SF-CAS             123:       -10.8807819280    17.6490    30.0000
 SF-CAS             124:       -10.8803332853    17.6612    30.0000
 SF-CAS             125:       -10.8779539116    17.7259    30.0000
 SF-CAS             126:       -10.8749339892    17.8081    30.0000
 SF-CAS             127:       -10.7147571717    22.1668    30.0000
 SF-CAS             128:       -10.7096967068    22.3045    30.0000
 SF-CAS             129:       -10.7045587416    22.4443    30.0000
 SF-CAS             130:       -10.7008692639    22.5447    30.0000
 SF-CAS             131:       -10.6988218412    22.6004    30.0000
 SF-CAS             132:       -10.6959964509    22.6773    30.0000
 SF-CAS             133:       -10.6862996820    22.9411    30.0000
 SF-CAS             134:       -10.6853771783    22.9662    30.0000
 SF-CAS             135:       -10.6794115147    23.1286    30.0000
 SF-CAS             136:       -10.6779720994    23.1678    30.0000
 SF-CAS             137:       -10.6763397230    23.2122    30.0000
 SF-CAS             138:       -10.6732501585    23.2962    30.0000
 SF-CAS             139:       -10.6720317914    23.3294    30.0000
 SF-CAS             140:       -10.6693954387    23.4011    30.0000
 SF-CAS             141:       -10.6660641390    23.4918    30.0000
 SF-CAS             142:       -10.6622206474    23.5964    30.0000
 SF-CAS             143:       -10.6588970900    23.6868    30.0000
 SF-CAS             144:       -10.6507865735    23.9075    30.0000
 ===================================================================

              Active Space Coefficients > 0.20
 -------------------------------------------------------------------
 State  1                       Configuration         Coeff.   <S^2>
 -------------------------------------------------------------------
                  11111111111_ | ___________1      -0.640063  31.000
                  11111111_111 | ________1___      -0.286239  31.000
                  111111_11111 | ______1_____      -0.226158  31.000
                  1111_1111111 | ____1_______      -0.216339  31.000
                  11_111111111 | __1_________       0.280622  31.000
                  _11111111111 | 1___________      -0.265186  31.000
 -------------------------------------------------------------------
 State  2                       Configuration         Coeff.   <S^2>
 -------------------------------------------------------------------
                  1111111111_1 | __________1_      -0.623609  31.000
                  11111_111111 | _____1______      -0.303451  31.000
                  111_11111111 | ___1________      -0.291258  31.000
                  11_111111111 | __1_________      -0.291490  31.000
                  1_1111111111 | _1__________      -0.310343  31.000
 -------------------------------------------------------------------
 State  3                       Configuration         Coeff.   <S^2>
 -------------------------------------------------------------------
                  111111111_11 | _________1__       0.229357  31.000
                  11111_111111 | _____1______      -0.565385  31.000
                  111_11111111 | ___1________       0.429260  31.000
                  11_111111111 | __1_________      -0.384513  31.000
                  _11111111111 | 1___________       0.216659  31.000
 -------------------------------------------------------------------
 State  4                       Configuration         Coeff.   <S^2>
 -------------------------------------------------------------------
                  11111111111_ | ___________1       0.378415  31.000
                  11111111_111 | ________1___      -0.305306  31.000
                  1111_1111111 | ____1_______      -0.288557  31.000
                  11_111111111 | __1_________       0.548230  31.000
                  _11111111111 | 1___________       0.322438  31.000
 -------------------------------------------------------------------
 State  5                       Configuration         Coeff.   <S^2>
 -------------------------------------------------------------------
                  1111111111_1 | __________1_      -0.351218  31.000
                  111111111_11 | _________1__      -0.245827  31.000
                  11111_111111 | _____1______       0.304056  31.000
                  1111_1111111 | ____1_______       0.251518  31.000
                  111_11111111 | ___1________       0.550953  31.000
                  1_1111111111 | _1__________      -0.224836  31.000
                  _11111111111 | 1___________       0.248600  31.000
 -------------------------------------------------------------------
 State  6                       Configuration         Coeff.   <S^2>
 -------------------------------------------------------------------
                  111111111_11 | _________1__       0.677065  31.000
                  1111111_1111 | _______1____      -0.424168  31.000
                  11111_111111 | _____1______       0.265534  31.000
                  1111_1111111 | ____1_______       0.219310  31.000
                  1_1111111111 | _1__________      -0.260885  31.000
 -------------------------------------------------------------------
 State  7                       Configuration         Coeff.   <S^2>
 -------------------------------------------------------------------
                  11111111_111 | ________1___      -0.657935  31.000
                  1111_1111111 | ____1_______       0.610059  31.000
 -------------------------------------------------------------------
 State  8                       Configuration         Coeff.   <S^2>
 -------------------------------------------------------------------
                  1111111_1111 | _______1____      -0.606606  31.000
                  1_1111111111 | _1__________       0.612470  31.000
 -------------------------------------------------------------------
 State  9                       Configuration         Coeff.   <S^2>
 -------------------------------------------------------------------
                  111111_11111 | ______1_____      -0.700157  31.000
                  _11111111111 | 1___________       0.562610  31.000
 -------------------------------------------------------------------
 State  10                      Configuration         Coeff.   <S^2>
 -------------------------------------------------------------------
                  11111111111_ | ___________1       0.334732  31.000
                  11111111_111 | ________1___       0.347338  31.000
                  111111_11111 | ______1_____      -0.358520  31.000
                  11111_111111 | _____1______      -0.353823  31.000
                  1111_1111111 | ____1_______       0.349719  31.000
                  111_11111111 | ___1________       0.354194  31.000
                  11_111111111 | __1_________       0.364045  31.000
                  _11111111111 | 1___________      -0.358573  31.000
 -------------------------------------------------------------------
 State  11                      Configuration         Coeff.   <S^2>
 -------------------------------------------------------------------
                  11111111111_ | ___________1      -0.204843  31.000
                  1111111111_1 | __________1_      -0.395986  31.000
                  111111111_11 | _________1__       0.409409  31.000
                  11111111_111 | ________1___       0.204192  31.000
                  1111111_1111 | _______1____       0.412273  31.000
                  111111_11111 | ______1_____       0.208576  31.000
                  1111_1111111 | ____1_______       0.204341  31.000
                  111_11111111 | ___1________      -0.200813  31.000
                  11_111111111 | __1_________       0.204205  31.000
                  1_1111111111 | _1__________       0.412954  31.000
                  _11111111111 | 1___________       0.208702  31.000
 -------------------------------------------------------------------
 State  12                      Configuration         Coeff.   <S^2>
 -------------------------------------------------------------------
                  11111111111_ | ___________1      -0.288675  31.000
                  1111111111_1 | __________1_       0.288675  31.000
                  111111111_11 | _________1__      -0.288675  31.000
                  11111111_111 | ________1___       0.288675  31.000
                  1111111_1111 | _______1____      -0.288675  31.000
                  111111_11111 | ______1_____       0.288675  31.000
                  11111_111111 | _____1______      -0.288675  31.000
                  1111_1111111 | ____1_______       0.288675  31.000
                  111_11111111 | ___1________      -0.288675  31.000
                  11_111111111 | __1_________       0.288675  31.000
                  1_1111111111 | _1__________      -0.288675  31.000
                  _11111111111 | 1___________       0.288675  31.000
 -------------------------------------------------------------------
 State  13                      Configuration         Coeff.   <S^2>
 -------------------------------------------------------------------
                  11111111111_ | 1___________       0.294557  30.000
                  11111111111_ | ___1________       0.294942  30.000
                  11111111111_ | ____1_______       0.247829  30.000
                  11111111111_ | _____1______       0.231007  30.000
                  11111111111_ | ______1_____       0.294964  30.000
                  11111111111_ | ________1___      -0.249011  30.000
                  11_111111111 | ____1_______      -0.208845  30.000
                  11_111111111 | _____1______      -0.254460  30.000
 -------------------------------------------------------------------
 State  14                      Configuration         Coeff.   <S^2>
 -------------------------------------------------------------------
                  1111111111_1 | _1__________      -0.260350  30.000
                  1111111111_1 | _______1____      -0.257126  30.000
                  1111111111_1 | _________1__       0.272756  30.000
                  11111_111111 | ____1_______       0.223237  30.000
                  11111_111111 | ________1___      -0.221678  30.000
                  111_11111111 | 1___________       0.203529  30.000
                  111_11111111 | ______1_____       0.227333  30.000
                  111_11111111 | ___________1      -0.260784  30.000
 -------------------------------------------------------------------
 State  15                      Configuration         Coeff.   <S^2>
 -------------------------------------------------------------------
                  11111111111_ | ___1________       0.287689  30.000
                  11111111111_ | ______1_____       0.216162  30.000
                  11111_111111 | ________1___      -0.202245  30.000
                  11_111111111 | __1_________      -0.201619  31.000
                  11_111111111 | ____1_______       0.313856  30.000
                  11_111111111 | _____1______       0.287063  30.000
                  11_111111111 | ________1___      -0.310575  30.000
                  _11111111111 | ___1________      -0.214406  30.000
                  _11111111111 | ______1_____      -0.275538  30.000
 -------------------------------------------------------------------
 State  16                      Configuration         Coeff.   <S^2>
 -------------------------------------------------------------------
                  111111_11111 | 1___________      -0.315658  30.000
                  111111_11111 | ___1________      -0.414332  30.000
                  111111_11111 | ______1_____       0.259578  31.000
                  111111_11111 | ___________1       0.434369  30.000
                  _11111111111 | 1___________      -0.201070  31.000
                  _11111111111 | ___1________       0.351061  30.000
                  _11111111111 | ___________1      -0.367836  30.000
 -------------------------------------------------------------------
 State  17                      Configuration         Coeff.   <S^2>
 -------------------------------------------------------------------
                  111_11111111 | 1___________       0.294865  30.000
                  111_11111111 | ______1_____       0.295654  30.000
                  111_11111111 | ___________1      -0.288991  30.000
                  1_1111111111 | _______1____       0.241827  30.000
 -------------------------------------------------------------------
 State  18                      Configuration         Coeff.   <S^2>
 -------------------------------------------------------------------
                  1111111111_1 | _______1____       0.235639  30.000
                  1111111111_1 | _________1__      -0.245269  30.000
                  11111111_111 | ____1_______      -0.225545  30.000
                  11111_111111 | __1_________       0.309102  30.000
                  11111_111111 | ____1_______       0.289682  30.000
                  11111_111111 | ________1___      -0.262927  30.000
                  1_1111111111 | _______1____       0.300529  30.000
                  1_1111111111 | _________1__      -0.289102  30.000
                  1_1111111111 | __________1_       0.242192  30.000
 -------------------------------------------------------------------
 State  19                      Configuration         Coeff.   <S^2>
 -------------------------------------------------------------------
                  1111111111_1 | _1__________       0.277351  30.000
                  1111111111_1 | _______1____       0.259734  30.000
                  111111111_11 | _1__________      -0.404252  30.000
                  111111111_11 | _______1____      -0.420480  30.000
                  111111111_11 | _________1__      -0.270323  31.000
                  111111111_11 | __________1_      -0.384220  30.000
                  1_1111111111 | __________1_      -0.215204  30.000
 -------------------------------------------------------------------
 State  20                      Configuration         Coeff.   <S^2>
 -------------------------------------------------------------------
                  1111111111_1 | _1__________      -0.211759  30.000
                  1111111_1111 | _1__________      -0.380819  30.000
                  1111111_1111 | _______1____       0.276005  31.000
                  1111111_1111 | _________1__       0.427619  30.000
                  1111111_1111 | __________1_      -0.428367  30.000
                  1_1111111111 | _________1__      -0.265323  30.000
                  1_1111111111 | __________1_       0.286811  30.000
 -------------------------------------------------------------------
 State  21                      Configuration         Coeff.   <S^2>
 -------------------------------------------------------------------
                  11111111_111 | __1_________      -0.367348  30.000
                  11111111_111 | ____1_______      -0.229549  30.000
                  11111111_111 | _____1______      -0.388820  30.000
                  11111111_111 | ________1___      -0.217051  31.000
                  1111_1111111 | __1_________      -0.418362  30.000
                  1111_1111111 | ____1_______       0.255006  31.000
                  1111_1111111 | _____1______      -0.419088  30.000
                  1111_1111111 | ________1___       0.311780  30.000
 -------------------------------------------------------------------
 State  22                      Configuration         Coeff.   <S^2>
 -------------------------------------------------------------------
                  11111111111_ | __1_________       0.305018  30.000
                  11111111111_ | ____1_______       0.380335  30.000
                  11111111111_ | _____1______       0.361000  30.000
                  11111111111_ | ________1___      -0.386582  30.000
 -------------------------------------------------------------------
 State  23                      Configuration         Coeff.   <S^2>
 -------------------------------------------------------------------
                  1111111111_1 | 1___________      -0.258296  30.000
                  1111111111_1 | ___1________      -0.337530  30.000
                  1111111111_1 | ______1_____      -0.273283  30.000
                  1111111111_1 | ___________1       0.343262  30.000
                  11111_111111 | ___1________      -0.200768  30.000
                  11111_111111 | ___________1       0.240299  30.000
 -------------------------------------------------------------------
 State  24                      Configuration         Coeff.   <S^2>
 -------------------------------------------------------------------
                  11111111_111 | 1___________      -0.202960  30.000
                  11111111_111 | ___1________      -0.218884  30.000
                  11111111_111 | ______1_____      -0.213390  30.000
                  11111111_111 | ___________1       0.301902  30.000
                  11111_111111 | _______1____      -0.202766  30.000
                  11111_111111 | _________1__       0.235363  30.000
                  11111_111111 | __________1_      -0.272673  30.000
 -------------------------------------------------------------------
 State  25                      Configuration         Coeff.   <S^2>
 -------------------------------------------------------------------
                  11111111_111 | 1___________      -0.246846  30.000
                  11111111_111 | ___1________      -0.244545  30.000
                  11111111_111 | ______1_____      -0.256175  30.000
                  11111111_111 | ___________1       0.352592  30.000
                  1111_1111111 | 1___________      -0.274908  30.000
                  1111_1111111 | ___1________      -0.278708  30.000
                  1111_1111111 | ______1_____      -0.264437  30.000
                  1111_1111111 | ___________1       0.382785  30.000
 -------------------------------------------------------------------
 State  26                      Configuration         Coeff.   <S^2>
 -------------------------------------------------------------------
                  11111111111_ | __________1_      -0.230458  30.000
                  11111_111111 | _1__________       0.211052  30.000
                  11111_111111 | _______1____       0.218160  30.000
                  11111_111111 | _________1__      -0.257376  30.000
                  11111_111111 | __________1_       0.285133  30.000
                  111_11111111 | _1__________      -0.255101  30.000
                  111_11111111 | _______1____      -0.283418  30.000
                  111_11111111 | _________1__       0.250469  30.000
                  111_11111111 | __________1_      -0.353262  30.000
 -------------------------------------------------------------------
 State  27                      Configuration         Coeff.   <S^2>
 -------------------------------------------------------------------
                  1111111111_1 | __1_________      -0.245597  30.000
                  1111111111_1 | ____1_______      -0.257531  30.000
                  1111111111_1 | _____1______      -0.334490  30.000
                  1111111111_1 | ________1___       0.266340  30.000
                  111111111_11 | _____1______       0.225607  30.000
 -------------------------------------------------------------------
 State  28                      Configuration         Coeff.   <S^2>
 -------------------------------------------------------------------
                  1111111111_1 | ___1________       0.224024  30.000
                  11111_111111 | 1___________      -0.203937  30.000
                  11111_111111 | ___1________      -0.201474  30.000
                  11111_111111 | ______1_____      -0.203756  30.000
                  11111_111111 | ___________1       0.275201  30.000
                  1111_1111111 | ___________1       0.258682  30.000
 -------------------------------------------------------------------
 State  29                      Configuration         Coeff.   <S^2>
 -------------------------------------------------------------------
                  11111111111_ | _1__________      -0.220045  30.000
                  11111111111_ | _______1____      -0.233677  30.000
                  11111111111_ | _________1__       0.227295  30.000
                  11111111111_ | __________1_      -0.293025  30.000
                  111111_11111 | _1__________       0.202841  30.000
                  111111_11111 | _______1____       0.212124  30.000
                  111111_11111 | _________1__      -0.200497  30.000
                  111111_11111 | __________1_       0.256208  30.000
                  111_11111111 | _______1____       0.201935  30.000
                  111_11111111 | __________1_       0.243911  30.000
 -------------------------------------------------------------------
 State  30                      Configuration         Coeff.   <S^2>
 -------------------------------------------------------------------
                  111111111_11 | __1_________       0.249072  30.000
                  111111111_11 | ____1_______       0.269169  30.000
                  111111111_11 | _____1______       0.346431  30.000
                  111111111_11 | ________1___      -0.269278  30.000
                  111111111_11 | ___________1       0.217441  30.000
                  1111111_1111 | __1_________       0.200211  30.000
                  1111111_1111 | ____1_______       0.225437  30.000
                  1111111_1111 | _____1______       0.263554  30.000
                  1111111_1111 | ________1___      -0.223399  30.000
                  1111111_1111 | ___________1       0.205151  30.000
 -------------------------------------------------------------------
 State  31                      Configuration         Coeff.   <S^2>
 -------------------------------------------------------------------
                  1111111_1111 | 1___________      -0.272180  30.000
                  1111111_1111 | ___1________      -0.339824  30.000
                  1111111_1111 | ______1_____      -0.273855  30.000
                  1111111_1111 | ___________1       0.312504  30.000
                  1_1111111111 | 1___________       0.234325  30.000
                  1_1111111111 | ___1________       0.283733  30.000
                  1_1111111111 | _____1______      -0.221718  30.000
                  1_1111111111 | ______1_____       0.244433  30.000
                  1_1111111111 | ________1___       0.204279  30.000
                  1_1111111111 | ___________1      -0.301368  30.000
 -------------------------------------------------------------------
 State  32                      Configuration         Coeff.   <S^2>
 -------------------------------------------------------------------
                  111111_11111 | __1_________       0.302561  30.000
                  111111_11111 | ____1_______       0.351299  30.000
                  111111_11111 | _____1______       0.346440  30.000
                  111111_11111 | ________1___      -0.370915  30.000
                  _11111111111 | __1_________      -0.267705  30.000
                  _11111111111 | ____1_______      -0.324468  30.000
                  _11111111111 | _____1______      -0.308154  30.000
                  _11111111111 | ________1___       0.316248  30.000
 -------------------------------------------------------------------
 State  33                      Configuration         Coeff.   <S^2>
 -------------------------------------------------------------------
                  11111_111111 | ___________1      -0.204582  30.000
                  11_111111111 | 1___________       0.314505  30.000
                  11_111111111 | ___1________       0.322063  30.000
                  11_111111111 | ______1_____       0.315452  30.000
                  11_111111111 | ___________1      -0.375631  30.000
 -------------------------------------------------------------------
 State  34                      Configuration         Coeff.   <S^2>
 -------------------------------------------------------------------
                  11111111_111 | _1__________      -0.215463  30.000
                  11111111_111 | _______1____      -0.218243  30.000
                  11111111_111 | _________1__       0.235796  30.000
                  11111111_111 | __________1_      -0.262041  30.000
                  1111_1111111 | _1__________      -0.210118  30.000
                  1111_1111111 | _______1____      -0.220090  30.000
                  1111_1111111 | _________1__       0.236481  30.000
                  1111_1111111 | __________1_      -0.251844  30.000
                  111_11111111 | ____1_______      -0.223619  30.000
                  111_11111111 | _____1______      -0.214801  30.000
                  111_11111111 | ________1___       0.220300  30.000
 -------------------------------------------------------------------
 State  35                      Configuration         Coeff.   <S^2>
 -------------------------------------------------------------------
                  11111111_111 | _1__________      -0.221705  30.000
                  11111111_111 | _______1____      -0.223971  30.000
                  11111111_111 | _________1__       0.244464  30.000
                  11111111_111 | __________1_      -0.268506  30.000
                  1111_1111111 | _1__________      -0.225081  30.000
                  1111_1111111 | _______1____      -0.236496  30.000
                  1111_1111111 | _________1__       0.251318  30.000
                  1111_1111111 | __________1_      -0.271202  30.000
                  111_11111111 | ____1_______       0.212865  30.000
                  111_11111111 | _____1______       0.205267  30.000
                  111_11111111 | ________1___      -0.213258  30.000
 -------------------------------------------------------------------
 State  36                      Configuration         Coeff.   <S^2>
 -------------------------------------------------------------------
                  111111_11111 | _1__________      -0.312320  30.000
                  111111_11111 | _______1____      -0.322643  30.000
                  111111_11111 | _________1__       0.303061  30.000
                  111111_11111 | __________1_      -0.366806  30.000
                  _11111111111 | _1__________       0.315337  30.000
                  _11111111111 | _______1____       0.336583  30.000
                  _11111111111 | _________1__      -0.312052  30.000
                  _11111111111 | __________1_       0.364676  30.000
 -------------------------------------------------------------------
 State  37                      Configuration         Coeff.   <S^2>
 -------------------------------------------------------------------
                  111111111_11 | 1___________       0.267496  30.000
                  111111111_11 | ___1________       0.311071  30.000
                  111111111_11 | ______1_____       0.272417  30.000
                  111111111_11 | ___________1      -0.281559  30.000
                  1111111_1111 | __1_________       0.224260  30.000
                  1111111_1111 | ____1_______       0.226225  30.000
                  1111111_1111 | _____1______       0.264869  30.000
                  1111111_1111 | ________1___      -0.221587  30.000
 -------------------------------------------------------------------
 State  38                      Configuration         Coeff.   <S^2>
 -------------------------------------------------------------------
                  1111111_1111 | __1_________       0.201842  30.000
                  1111111_1111 | ____1_______       0.210070  30.000
                  1111111_1111 | _____1______       0.238738  30.000
                  1111111_1111 | ________1___      -0.206056  30.000
                  1_1111111111 | 1___________      -0.235538  30.000
                  1_1111111111 | __1_________      -0.293324  30.000
                  1_1111111111 | ___1________      -0.284051  30.000
                  1_1111111111 | ____1_______      -0.284475  30.000
                  1_1111111111 | _____1______      -0.340852  30.000
                  1_1111111111 | ______1_____      -0.245845  30.000
                  1_1111111111 | ________1___       0.288506  30.000
                  1_1111111111 | ___________1       0.202541  30.000
 -------------------------------------------------------------------
 State  39                      Configuration         Coeff.   <S^2>
 -------------------------------------------------------------------
                  11111111111_ | __________1_      -0.240394  30.000
                  11_111111111 | _1__________      -0.315853  30.000
                  11_111111111 | _______1____      -0.320874  30.000
                  11_111111111 | _________1__       0.359336  30.000
                  11_111111111 | __________1_      -0.362139  30.000
 -------------------------------------------------------------------
 State  40                      Configuration         Coeff.   <S^2>
 -------------------------------------------------------------------
                  11111111_111 | __1_________       0.230787  30.000
                  11111111_111 | ____1_______      -0.389489  30.000
                  11111111_111 | _____1______       0.202359  30.000
                  11111_111111 | __1_________      -0.418781  30.000
                  11111_111111 | ____1_______       0.220742  30.000
                  11111_111111 | ________1___      -0.246137  30.000
                  1111_1111111 | __1_________      -0.236554  30.000
                  1111_1111111 | ________1___      -0.353962  30.000
                  11_111111111 | ____1_______      -0.205900  30.000
                  11_111111111 | _____1______       0.312144  30.000
 -------------------------------------------------------------------
 State  41                      Configuration         Coeff.   <S^2>
 -------------------------------------------------------------------
                  1111111111_1 | _______1____       0.312064  30.000
                  1111111111_1 | _________1__       0.444670  30.000
                  111111111_11 | _1__________       0.208024  30.000
                  111111111_11 | __________1_      -0.285762  30.000
                  1111111_1111 | _1__________       0.342274  30.000
                  1_1111111111 | _______1____       0.383371  30.000
                  1_1111111111 | _________1__       0.289030  30.000
 -------------------------------------------------------------------
 State  42                      Configuration         Coeff.   <S^2>
 -------------------------------------------------------------------
                  11111111111_ | 1___________      -0.201199  30.000
                  11111111111_ | ___1________       0.382650  30.000
                  11111111111_ | ______1_____      -0.232838  30.000
                  1111111111_1 | _1__________       0.338175  30.000
                  111111111_11 | _______1____       0.302269  30.000
                  1111111_1111 | _________1__       0.264749  30.000
                  111111_11111 | 1___________       0.254772  30.000
                  111111_11111 | ___1________      -0.203517  30.000
                  1_1111111111 | __________1_      -0.219098  30.000
                  _11111111111 | ___1________      -0.227079  30.000
                  _11111111111 | ______1_____       0.268680  30.000
 -------------------------------------------------------------------
 State  43                      Configuration         Coeff.   <S^2>
 -------------------------------------------------------------------
                  11111111_111 | __1_________       0.320740  30.000
                  11111111_111 | _____1______      -0.282434  30.000
                  11111_111111 | ____1_______       0.407376  30.000
                  11111_111111 | ________1___       0.358860  30.000
                  1111_1111111 | __1_________       0.273083  30.000
                  1111_1111111 | _____1______      -0.272277  30.000
                  11_111111111 | ____1_______       0.360564  30.000
                  11_111111111 | ________1___       0.351014  30.000
 -------------------------------------------------------------------
 State  44                      Configuration         Coeff.   <S^2>
 -------------------------------------------------------------------
                  11111111111_ | 1___________       0.204244  30.000
                  11111111111_ | ___1________      -0.301512  30.000
                  1111111111_1 | _1__________       0.347941  30.000
[...]
   697     3234.72332888    31200.36260528       20.00000000      cm-1
   698     3237.06016253    31202.69943893        2.00000000      cm-1
   699     3241.40222557    31207.04150197        6.00000000      cm-1
   700     3246.06067578    31211.69995217        6.00000000      cm-1
   701     3248.61632992    31214.25560632       12.00000000      cm-1
   702     3249.18657822    31214.82585462       12.00000000      cm-1
   703     3250.38639510    31216.02567150        6.00000000      cm-1
   704     3258.16802714    31223.80730354        6.00000000      cm-1
   705     3259.32047137    31224.95974777        6.00000000      cm-1
   706     3262.30233513    31227.94161152       12.00000000      cm-1
   707     3263.16169594    31228.80097234       -0.00000000      cm-1
   708     3268.52510990    31234.16438630        2.00000000      cm-1
   709     3270.79595112    31236.43522752        6.00000000      cm-1
   710     3275.18518792    31240.82446432       12.00000000      cm-1
   711     3277.93262517    31243.57190157        2.00000000      cm-1
   712     3279.39460171    31245.03387811       12.00000000      cm-1
   713     3281.37540777    31247.01468417        6.00000000      cm-1
   714     3284.00933865    31249.64861505       12.00000000      cm-1
   715     3290.52128908    31256.16056548       12.00000000      cm-1
   716     3293.31497224    31258.95424864        6.00000000      cm-1
   717     3296.85627540    31262.49555180       20.00000000      cm-1
   718     3298.01468816    31263.65396456       12.00000000      cm-1
   719     3299.91263405    31265.55191045       20.00000000      cm-1
   720     3301.04746093    31266.68673733       12.00000000      cm-1
   721     3302.61376241    31268.25303881        6.00000000      cm-1
   722     3305.88807150    31271.52734790       12.00000000      cm-1
   723     3309.29492042    31274.93419682        2.00000000      cm-1
   724     3309.29569381    31274.93497021       -0.00000000      cm-1
   725     3313.53681153    31279.17608793        6.00000000      cm-1
   726     3319.32045255    31284.95972895        2.00000000      cm-1
   727     3319.87454271    31285.51381911       20.00000000      cm-1
   728     3324.57459200    31290.21386840        6.00000000      cm-1
   729     3327.72493020    31293.36420660        0.00000000      cm-1
   730     3328.16720730    31293.80648370       12.00000000      cm-1
   731     3329.10983357    31294.74910997       20.00000000      cm-1
   732     3329.17963430    31294.81891070        2.00000000      cm-1
   733     3330.90972372    31296.54900012        6.00000000      cm-1
   734     3331.75719621    31297.39647261       12.00000000      cm-1
   735     3337.12991897    31302.76919537        6.00000000      cm-1
   736     3351.10673090    31316.74600729        6.00000000      cm-1
   737     3356.92677755    31322.56605395       20.00000000      cm-1
   738     3359.86761882    31325.50689522       12.00000000      cm-1
   739     3370.81378145    31336.45305785       12.00000000      cm-1
   740     3375.71871876    31341.35799516       12.00000000      cm-1
   741     3376.48879176    31342.12806815       20.00000000      cm-1
   742     3376.77927862    31342.41855502        6.00000000      cm-1
   743     3384.48925865    31350.12853505       20.00000000      cm-1
   744     3386.50166806    31352.14094446        6.00000000      cm-1
   745     3386.73988299    31352.37915939       20.00000000      cm-1
   746     3387.08761562    31352.72689202       12.00000000      cm-1
   747     3388.72196657    31354.36124297       12.00000000      cm-1
   748     3389.81920717    31355.45848357       20.00000000      cm-1
   749     3417.71458765    31383.35386405       20.00000000      cm-1
   750     3425.23377019    31390.87304659       20.00000000      cm-1
   751     3435.38995123    31401.02922763       12.00000000      cm-1
   752     3435.48788215    31401.12715855        6.00000000      cm-1
   753     3441.25119458    31406.89047098       20.00000000      cm-1
   754     3456.51424531    31422.15352171       20.00000000      cm-1
   755     3462.24594899    31427.88522539       20.00000000      cm-1
   756     3498.47160287    31464.11087927       20.00000000      cm-1
   757     3499.89582559    31465.53510199       20.00000000      cm-1
   758     8749.13897504    36714.77825143        0.00000000      cm-1
   759     8811.92440282    36777.56367922        2.00000000      cm-1
   760     8924.14316083    36889.78243723       -0.00000000      cm-1
   761     8935.83176439    36901.47104079        6.00000000      cm-1
   762     8955.30806227    36920.94733867       -0.00000000      cm-1
   763     8970.34006484    36935.97934124        0.00000000      cm-1
   764     8983.83623012    36949.47550652        2.00000000      cm-1
   765     8987.18565531    36952.82493171        2.00000000      cm-1
   766     9000.89900565    36966.53828205        2.00000000      cm-1
   767     9040.48573607    37006.12501247        6.00000000      cm-1
   768     9061.61095807    37027.25023447        6.00000000      cm-1
   769     9111.60828003    37077.24755643        6.00000000      cm-1
   770     9117.73904048    37083.37831687       12.00000000      cm-1
   771     9124.46997714    37090.10925354       12.00000000      cm-1
   772     9141.03489466    37106.67417106        0.00000000      cm-1
   773     9151.68861599    37117.32789239       12.00000000      cm-1
   774     9170.22485260    37135.86412900       -0.00000000      cm-1
   775     9171.24132413    37136.88060053        2.00000000      cm-1
   776     9199.44525411    37165.08453051        2.00000000      cm-1
   777     9231.24150643    37196.88078283        6.00000000      cm-1
   778     9234.67567725    37200.31495365       20.00000000      cm-1
   779     9257.50274406    37223.14202046        6.00000000      cm-1
   780     9270.01033172    37235.64960811       20.00000000      cm-1
   781     9294.29315171    37259.93242811       12.00000000      cm-1
   782     9320.23699810    37285.87627450       12.00000000      cm-1
   783     9343.65509136    37309.29436775       12.00000000      cm-1
   784     9353.41939647    37319.05867286       20.00000000      cm-1
   785     9437.09352023    37402.73279663       20.00000000      cm-1
   786     9456.84637271    37422.48564911       20.00000000      cm-1
   787     9531.01619344    37496.65546984       20.00000000      cm-1
   788    14763.27780472    42728.91708112        2.00000000      cm-1
   789    14819.59045789    42785.22973429        6.00000000      cm-1
   790    14847.24677763    42812.88605403        2.00000000      cm-1
   791    14896.92153916    42862.56081556       -0.00000000      cm-1
   792    14897.42638331    42863.06565971       12.00000000      cm-1
   793    14907.99291306    42873.63218946        2.00000000      cm-1
   794    14922.48023938    42888.11951577        6.00000000      cm-1
   795    14922.89058264    42888.52985904        0.00000000      cm-1
   796    14934.33210237    42899.97137877        2.00000000      cm-1
   797    14948.51117279    42914.15044918        2.00000000      cm-1
   798    14950.05018154    42915.68945794        0.00000000      cm-1
   799    14962.84925905    42928.48853545        6.00000000      cm-1
   800    14968.28548164    42933.92475804        2.00000000      cm-1
   801    14985.33038663    42950.96966303        2.00000000      cm-1
   802    14988.45935560    42954.09863200        2.00000000      cm-1
   803    15004.30381999    42969.94309639        2.00000000      cm-1
   804    15008.54435925    42974.18363565        6.00000000      cm-1
   805    15010.54844102    42976.18771742        2.00000000      cm-1
   806    15022.05912761    42987.69840401        6.00000000      cm-1
   807    15026.94020604    42992.57948244        2.00000000      cm-1
   808    15030.01557058    42995.65484698       12.00000000      cm-1
   809    15041.18851783    43006.82779423       -0.00000000      cm-1
   810    15042.19146151    43007.83073791        6.00000000      cm-1
   811    15044.36251422    43010.00179062        2.00000000      cm-1
   812    15056.67316089    43022.31243729       12.00000000      cm-1
   813    15075.63360155    43041.27287795       12.00000000      cm-1
   814    15076.02153911    43041.66081551        6.00000000      cm-1
   815    15089.87344037    43055.51271677        2.00000000      cm-1
   816    15090.72270729    43056.36198369        0.00000000      cm-1
   817    15101.12790409    43066.76718049        6.00000000      cm-1
   818    15107.49242454    43073.13170094        6.00000000      cm-1
   819    15110.41828207    43076.05755846       12.00000000      cm-1
   820    15116.49741512    43082.13669152        2.00000000      cm-1
   821    15128.83799600    43094.47727240        6.00000000      cm-1
   822    15131.69748030    43097.33675669        2.00000000      cm-1
   823    15144.36740947    43110.00668587        6.00000000      cm-1
   824    15145.59469120    43111.23396760        6.00000000      cm-1
   825    15146.62665901    43112.26593541        0.00000000      cm-1
   826    15163.76294352    43129.40221992       12.00000000      cm-1
   827    15170.66345075    43136.30272715        6.00000000      cm-1
   828    15173.09118383    43138.73046023        2.00000000      cm-1
   829    15181.26708073    43146.90635713       20.00000000      cm-1
   830    15196.01698015    43161.65625655       12.00000000      cm-1
   831    15196.73046680    43162.36974320        6.00000000      cm-1
   832    15201.82543237    43167.46470877        6.00000000      cm-1
   833    15204.70542370    43170.34470010        2.00000000      cm-1
   834    15209.98574421    43175.62502061        0.00000000      cm-1
   835    15227.90446732    43193.54374372        2.00000000      cm-1
   836    15233.47788834    43199.11716474       20.00000000      cm-1
   837    15244.81137202    43210.45064842       20.00000000      cm-1
   838    15259.01703397    43224.65631037        6.00000000      cm-1
   839    15260.76859098    43226.40786738       12.00000000      cm-1
   840    15272.47802325    43238.11729965        2.00000000      cm-1
   841    15280.45860033    43246.09787673       12.00000000      cm-1
   842    15283.41306606    43249.05234246       12.00000000      cm-1
   843    15283.93355584    43249.57283224        2.00000000      cm-1
   844    15289.88084177    43255.52011817        6.00000000      cm-1
   845    15293.79796371    43259.43724011       12.00000000      cm-1
   846    15296.27550404    43261.91478044        2.00000000      cm-1
   847    15300.39462101    43266.03389741       12.00000000      cm-1
   848    15314.22264978    43279.86192618        6.00000000      cm-1
   849    15322.35522365    43287.99450005       12.00000000      cm-1
   850    15325.34989928    43290.98917568        0.00000000      cm-1
   851    15337.27822020    43302.91749660       12.00000000      cm-1
   852    15342.64912715    43308.28840355        6.00000000      cm-1
   853    15345.10314347    43310.74241987        2.00000000      cm-1
   854    15360.70465045    43326.34392685       12.00000000      cm-1
   855    15366.19476277    43331.83403917       30.00000000      cm-1
   856    15366.63300347    43332.27227987        0.00000000      cm-1
   857    15372.30463932    43337.94391571       20.00000000      cm-1
   858    15376.44082331    43342.08009971       12.00000000      cm-1
   859    15377.40766888    43343.04694528        6.00000000      cm-1
   860    15384.60535758    43350.24463398        6.00000000      cm-1
   861    15393.67748680    43359.31676319        2.00000000      cm-1
   862    15395.88655575    43361.52583215       12.00000000      cm-1
   863    15406.24011543    43371.87939183       20.00000000      cm-1
   864    15417.22466129    43382.86393769        2.00000000      cm-1
   865    15427.01896573    43392.65824213       12.00000000      cm-1
   866    15440.26102989    43405.90030629        6.00000000      cm-1
   867    15447.27447486    43412.91375126        2.00000000      cm-1
   868    15447.48340744    43413.12268384       20.00000000      cm-1
   869    15448.77009195    43414.40936835       12.00000000      cm-1
   870    15456.95173574    43422.59101214        6.00000000      cm-1
   871    15486.07050336    43451.70977976       12.00000000      cm-1
   872    15487.32324919    43452.96252559        6.00000000      cm-1
   873    15489.43282089    43455.07209729       20.00000000      cm-1
   874    15495.91797140    43461.55724780       30.00000000      cm-1
   875    15498.10610214    43463.74537854       12.00000000      cm-1
   876    15500.19323786    43465.83251426        2.00000000      cm-1
   877    15501.77479752    43467.41407392       20.00000000      cm-1
   878    15505.03218844    43470.67146484        2.00000000      cm-1
   879    15510.56744585    43476.20672225        6.00000000      cm-1
   880    15527.07695633    43492.71623273       20.00000000      cm-1
   881    15536.32238896    43501.96166536       12.00000000      cm-1
   882    15537.11080098    43502.75007738        6.00000000      cm-1
   883    15537.20005962    43502.83933602       20.00000000      cm-1
   884    15551.74438794    43517.38366434       20.00000000      cm-1
   885    15553.27655052    43518.91582692        6.00000000      cm-1
   886    15563.75504198    43529.39431838       12.00000000      cm-1
   887    15568.45229288    43534.09156928       20.00000000      cm-1
   888    15580.19452992    43545.83380631       12.00000000      cm-1
   889    15595.28671917    43560.92599557       12.00000000      cm-1
   890    15598.46263170    43564.10190810       20.00000000      cm-1
   891    15622.37021451    43588.00949091       20.00000000      cm-1
   892    15622.94614495    43588.58542135       12.00000000      cm-1
   893    15633.21847759    43598.85775399       20.00000000      cm-1
   894    15653.76935008    43619.40862648       20.00000000      cm-1
   895    15664.04576118    43629.68503758       30.00000000      cm-1
   896    15704.80427710    43670.44355350       20.00000000      cm-1
   897    15706.01674577    43671.65602217       12.00000000      cm-1
   898    15709.55349908    43675.19277548       30.00000000      cm-1
   899    15717.87701709    43683.51629349       20.00000000      cm-1
   900    15771.62364617    43737.26292257       30.00000000      cm-1
   901    15778.64392904    43744.28320544       30.00000000      cm-1
   902    15793.59711346    43759.23638986       30.00000000      cm-1
   903    15821.93424008    43787.57351648       30.00000000      cm-1
   904    15832.87877481    43798.51805121       30.00000000      cm-1
   905    27290.44926292    55256.08853932        2.00000000      cm-1
   906    27312.62192011    55278.26119651        6.00000000      cm-1
   907    27328.86490558    55294.50418198       -0.00000000      cm-1
   908    27347.08655302    55312.72582942        6.00000000      cm-1
   909    27357.74814844    55323.38742484        2.00000000      cm-1
   910    27415.42749001    55381.06676641        6.00000000      cm-1
   911    27433.63053821    55399.26981461       12.00000000      cm-1
   912    27454.17449698    55419.81377338        2.00000000      cm-1
   913    27501.70741664    55467.34669304       12.00000000      cm-1
   914    27512.71191189    55478.35118828        6.00000000      cm-1
   915    27599.94781425    55565.58709065       12.00000000      cm-1
   916    27616.31318373    55581.95246013       20.00000000      cm-1
   917    27633.54917556    55599.18845196        6.00000000      cm-1
   918    27715.22240808    55680.86168448       20.00000000      cm-1
   919    27722.29437929    55687.93365569       12.00000000      cm-1
   920    27839.29052411    55804.92980051       20.00000000      cm-1
   921    27857.70124835    55823.34052475       30.00000000      cm-1
   922    27983.48361419    55949.12289058       30.00000000      cm-1
   923    28153.65350865    56119.29278505       42.00000000      cm-1
 Analysis of SCF Wavefunction

 --------------------------------------------------------------

                    Orbital Energies (a.u.)
 --------------------------------------------------------------

 Alpha MOs
 -- Occupied --
 -0.914  -0.914  -0.516  -0.516  -0.516  -0.516  -0.516  -0.515
 -0.518  -0.516  -0.516  -0.517  -0.515  -0.515
 -- Virtual --
  0.972   0.963   1.224   0.818   0.939   1.010   1.000   1.030
  1.049   0.930   1.040   1.341   1.078   0.995

 Beta MOs
 -- Occupied --
 -0.914  -0.914
 -- Virtual --
  0.147   0.148   0.147   0.147   0.147   0.147   0.148   0.147
  0.148   0.148   0.148   0.149   1.137   1.127   1.310   0.999
  1.107   1.170   1.164   1.164   1.205   1.098   1.208   1.372
  1.209   1.160
 --------------------------------------------------------------

          Ground-State Mulliken Net Atomic Charges

     Atom                 Charge (a.u.)
  ----------------------------------------
      1 H                     0.000084
      2 H                     0.000017
      3 H                    -0.000013
      4 H                     0.000003
      5 H                    -0.000021
      6 H                     0.000015
      7 H                     0.000019
      8 H                    -0.000019
      9 H                     0.000068
     10 H                    -0.000010
     11 H                    -0.000072
     12 H                    -0.000073
     13 He                    0.000000
     14 He                    0.000000
  ----------------------------------------
  Sum of atomic charges =    -0.000000

 -----------------------------------------------------------------
                    Cartesian Multipole Moments
 -----------------------------------------------------------------
    Charge (ESU x 10^10)
                -0.0000
    Dipole Moment (Debye)
         X      -0.0003      Y      -0.0005      Z       0.0003
       Tot       0.0007
    Quadrupole Moments (Debye-Ang)
        XX     -19.6209     XY       0.0149     YY     -19.5470
        XZ      -0.0002     YZ      -0.0095     ZZ     -19.5123
    Octopole Moments (Debye-Ang^2)
       XXX     -19.5157    XXY     -35.1363    XYY      -4.8424
       YYY    -108.1704    XXZ     -22.9142    XYZ      -0.0112
       YYZ     -23.8176    XZZ      -4.1125    YZZ     -35.0682
       ZZZ     -70.7098
    Hexadecapole Moments (Debye-Ang^3)
      XXXX   -1642.5991   XXXY     -12.5125   XXYY    -570.9771
      XYYY     -10.6402   YYYY   -1767.9584   XXXZ       3.4218
      XXYZ    -214.5177   XYYZ       0.0685   YYYZ    -652.7795
      XXZZ    -491.0286   XYZZ      -3.4054   YYZZ    -520.8243
      XZZZ       4.4610   YZZZ    -647.6085   ZZZZ   -1318.2269
 -----------------------------------------------------------------
 JobOver = TRUE
Archival summary:
1\1\sinatra\SP\ROProcedureUnspecified\6-31G*\e212()\nmayhall\MonMar2016:11:032017MonMar2016:11:032017\0\\#,ROProcedureUnspecified,6-31G*,\\0,13\H\H,1,1.8108\H,2,1.8111,1,60.0291\H,3,1.81133,2,60.0389,1,70.5227,0\H,1,2.837,2,152.386,3,178.05,0\H,5,1.8112,1,73.0863,2,-68.5028,0\H,6,1.81121,5,60.0005,1,-92.9521,0\H,7,1.81039,6,60.0315,5,-70.571,0\H,7,3.01656,6,121.864,5,95.9577,0\H,9,1.81065,7,135.973,6,162.925,0\H,9,1.81086,7,81.8723,6,133.792,0\H,10,1.81131,9,60.0237,7,-104.31,0\He,10,14.3857,9,124.061,7,34.0454,0\He,10,14.6181,9,124.196,7,146.862,0\\HF=-11.471099\\@

 Total job time:  0.51s(wall), 0.51s(cpu) 
 Mon Mar 20 16:11:03 2017

        *************************************************************
        *                                                           *
        *  Thank you very much for using Q-Chem.  Have a nice day.  *
        *                                                           *
        *************************************************************


*** MISSION COMPLETED -- STARFLEET OUT ***

