Jobname.Temp
SP        RO                            6-31G(d)            
Number of atoms                            I               14
Charge                                     I                0
Multiplicity                               I               13
Number of electrons                        I               16
Number of alpha electrons                  I               14
Number of beta electrons                   I                2
Atomic numbers                             I   N=          14
           1           1           1           1           1           1
           1           1           1           1           1           1
           2           2
Current cartesian coordinates              R   N=          42
 -1.39563833E+00 -1.02168043E+00  1.62062912E-01 -4.37169242E+00 -1.92275854E+00
 -1.26643776E+00 -3.96052581E+00  1.23869658E+00 -2.16562614E-02 -4.17712622E+00
 -1.42555270E+00  2.11639877E+00  2.79063416E+00  7.12810364E+00  1.85722284E-01
  3.18418852E-01  8.23962164E+00  2.27798925E+00  3.45574216E-01  4.97905039E+00
  1.24094535E+00 -4.09806007E-01  7.47439595E+00 -9.77800989E-01  6.59230959E+00
 -1.65451191E+00 -1.14970937E-01  4.33973715E+00  9.17991157E-01 -3.60937690E-03
  3.66531279E+00 -2.01588424E+00  1.62501329E+00  3.62048849E+00 -1.90796198E+00
 -1.79565556E+00  1.88972612E+01  1.88972612E+01  1.88972612E+01 -1.88972612E+01
  1.88972612E+01  1.88972612E+01
Nuclear charges                            R   N=          14
  1.00000000E+00  1.00000000E+00  1.00000000E+00  1.00000000E+00  1.00000000E+00
  1.00000000E+00  1.00000000E+00  1.00000000E+00  1.00000000E+00  1.00000000E+00
  1.00000000E+00  1.00000000E+00  2.00000000E+00  2.00000000E+00
Number of basis functions                  I               28
Number of contracted shells                I               28
Number of primitive shells                 I               56
Highest angular momentum                   I                0
Largest degree of contraction              I                3
Shell types                                I   N=          28
           0           0           0           0           0           0
           0           0           0           0           0           0
           0           0           0           0           0           0
           0           0           0           0           0           0
           0           0           0           0
Number of primitives per shell             I   N=          28
           3           1           3           1           3           1
           3           1           3           1           3           1
           3           1           3           1           3           1
           3           1           3           1           3           1
           3           1           3           1
Shell to atom map                          I   N=          28
           1           1           2           2           3           3
           4           4           5           5           6           6
           7           7           8           8           9           9
          10          10          11          11          12          12
          13          13          14          14
Primitive exponents                        R   N=          56
  1.87311370E+01  2.82539370E+00  6.40121700E-01  1.61277800E-01  1.87311370E+01
  2.82539370E+00  6.40121700E-01  1.61277800E-01  1.87311370E+01  2.82539370E+00
  6.40121700E-01  1.61277800E-01  1.87311370E+01  2.82539370E+00  6.40121700E-01
  1.61277800E-01  1.87311370E+01  2.82539370E+00  6.40121700E-01  1.61277800E-01
  1.87311370E+01  2.82539370E+00  6.40121700E-01  1.61277800E-01  1.87311370E+01
  2.82539370E+00  6.40121700E-01  1.61277800E-01  1.87311370E+01  2.82539370E+00
  6.40121700E-01  1.61277800E-01  1.87311370E+01  2.82539370E+00  6.40121700E-01
  1.61277800E-01  1.87311370E+01  2.82539370E+00  6.40121700E-01  1.61277800E-01
  1.87311370E+01  2.82539370E+00  6.40121700E-01  1.61277800E-01  1.87311370E+01
  2.82539370E+00  6.40121700E-01  1.61277800E-01  3.84216340E+01  5.77803000E+00
  1.24177400E+00  2.97964000E-01  3.84216340E+01  5.77803000E+00  1.24177400E+00
  2.97964000E-01
Contraction coefficients                   R   N=          56
  3.34945995E-02  2.34726947E-01  8.13757318E-01  1.00000000E+00  3.34945995E-02
  2.34726947E-01  8.13757318E-01  1.00000000E+00  3.34945995E-02  2.34726947E-01
  8.13757318E-01  1.00000000E+00  3.34945995E-02  2.34726947E-01  8.13757318E-01
  1.00000000E+00  3.34945995E-02  2.34726947E-01  8.13757318E-01  1.00000000E+00
  3.34945995E-02  2.34726947E-01  8.13757318E-01  1.00000000E+00  3.34945995E-02
  2.34726947E-01  8.13757318E-01  1.00000000E+00  3.34945995E-02  2.34726947E-01
  8.13757318E-01  1.00000000E+00  3.34945995E-02  2.34726947E-01  8.13757318E-01
  1.00000000E+00  3.34945995E-02  2.34726947E-01  8.13757318E-01  1.00000000E+00
  3.34945995E-02  2.34726947E-01  8.13757318E-01  1.00000000E+00  3.34945995E-02
  2.34726947E-01  8.13757318E-01  1.00000000E+00  4.01397393E-02  2.61246097E-01
  7.93184625E-01  1.00000000E+00  4.01397393E-02  2.61246097E-01  7.93184625E-01
  1.00000000E+00
Coordinates of each shell                  R   N=          84
 -1.39563833E+00 -1.02168043E+00  1.62062912E-01 -1.39563833E+00 -1.02168043E+00
  1.62062912E-01 -4.37169242E+00 -1.92275854E+00 -1.26643776E+00 -4.37169242E+00
 -1.92275854E+00 -1.26643776E+00 -3.96052581E+00  1.23869658E+00 -2.16562614E-02
 -3.96052581E+00  1.23869658E+00 -2.16562614E-02 -4.17712622E+00 -1.42555270E+00
  2.11639877E+00 -4.17712622E+00 -1.42555270E+00  2.11639877E+00  2.79063416E+00
  7.12810364E+00  1.85722284E-01  2.79063416E+00  7.12810364E+00  1.85722284E-01
  3.18418852E-01  8.23962164E+00  2.27798925E+00  3.18418852E-01  8.23962164E+00
  2.27798925E+00  3.45574216E-01  4.97905039E+00  1.24094535E+00  3.45574216E-01
  4.97905039E+00  1.24094535E+00 -4.09806007E-01  7.47439595E+00 -9.77800989E-01
 -4.09806007E-01  7.47439595E+00 -9.77800989E-01  6.59230959E+00 -1.65451191E+00
 -1.14970937E-01  6.59230959E+00 -1.65451191E+00 -1.14970937E-01  4.33973715E+00
  9.17991157E-01 -3.60937690E-03  4.33973715E+00  9.17991157E-01 -3.60937690E-03
  3.66531279E+00 -2.01588424E+00  1.62501329E+00  3.66531279E+00 -2.01588424E+00
  1.62501329E+00  3.62048849E+00 -1.90796198E+00 -1.79565556E+00  3.62048849E+00
 -1.90796198E+00 -1.79565556E+00  1.88972612E+01  1.88972612E+01  1.88972612E+01
  1.88972612E+01  1.88972612E+01  1.88972612E+01 -1.88972612E+01  1.88972612E+01
  1.88972612E+01 -1.88972612E+01  1.88972612E+01  1.88972612E+01
SCF Energy                                 R     -1.147135666585310E+01
Number of independent functions            I               28
Alpha MO coefficients                      R   N=         784
  7.83547014E-23 -2.12904885E-22  1.63217494E-21 -1.73005375E-21  2.64280998E-22
 -3.16609064E-22 -4.19485576E-22  1.02853919E-21  1.92142597E-21 -2.79603488E-21
  1.33483908E-21 -3.18780325E-21  9.98021279E-22 -1.66153430E-21 -4.33870525E-21
  7.74534822E-21  1.88335662E-21 -2.76472120E-21 -4.35933294E-22  9.46655685E-22
  2.67907475E-22  5.99640375E-23 -1.69106304E-21  1.84961147E-21 -5.92081261E-01
 -5.13586011E-01 -2.62671145E-21  2.71186822E-21 -7.14986753E-18  2.31943964E-16
  6.27776930E-17  1.82952911E-16  6.01813492E-17  3.55706617E-16  4.83218432E-16
  3.45506160E-17  1.31063401E-16  3.17087052E-16 -4.66825143E-16  2.57313681E-16
 -9.21260258E-17 -2.39404214E-16  9.24072037E-16  2.87948118E-16 -2.55292393E-16
 -1.68459092E-16  4.54963418E-16  4.15616076E-16  2.46343589E-16  1.18723803E-16
  2.19353831E-16  7.03849435E-17 -2.55913617E-18  2.64179977E-18 -5.92081261E-01
 -5.13586011E-01  1.65459970E-02  9.02832770E-02 -4.43581280E-01 -7.24308118E-01
  1.62676880E-02  8.99288066E-02  1.60165354E-02  8.97843482E-02  7.16087653E-04
 -1.46903337E-04  5.94740127E-04 -4.68718850E-05 -4.20423273E-03 -8.33535940E-04
 -3.75806228E-04  3.38267536E-04  9.46730171E-04  5.89801290E-04 -1.26826212E-03
  1.23106538E-04 -2.52088149E-03 -1.86839766E-03 -5.01024902E-04 -2.06086109E-03
  2.16078953E-17  1.87432258E-17  2.95287486E-16  2.56140073E-16 -9.80046197E-04
 -3.99035269E-04 -1.92420099E-05  1.66444030E-04  2.00160712E-03 -8.55768333E-04
 -4.50865240E-04  4.38028360E-04  1.62016092E-02  8.99036902E-02  1.60346372E-02
  9.00550775E-02  1.61915351E-02  8.99502387E-02 -4.43530218E-01 -7.24310198E-01
  4.79158416E-04  2.55041340E-05 -2.76677192E-03 -1.23854990E-03 -2.98184957E-05
  2.86226957E-04  3.69232232E-04  6.80659794E-05 -2.51985002E-17 -2.18578057E-17
  4.81784251E-16  4.17911737E-16 -7.50493024E-03 -4.14772335E-03  7.98053247E-04
  4.87864347E-04  8.52785643E-04  4.22090581E-04  7.61890473E-04  4.87174328E-04
 -1.20978663E-03 -5.42204265E-05  6.51108294E-04 -7.18727137E-05 -2.80189322E-03
 -6.80928446E-04  3.86532458E-04  1.04202792E-04 -4.43813954E-01 -7.24055337E-01
  1.64744559E-02  9.00505992E-02  1.67784050E-02  8.97512217E-02  1.66841638E-02
  8.98427009E-02  1.53387893E-17  1.33052473E-17 -2.30132809E-16 -1.99622917E-16
  8.01270843E-03  1.71018302E-02  4.63622233E-04 -3.05068778E-03 -8.02828500E-04
 -2.52525206E-03 -1.67000030E-03 -2.11025196E-03 -1.18619345E-03 -5.58818115E-05
  4.29486830E-04  9.86697524E-05 -1.54944015E-03 -1.11099003E-03  3.67326398E-04
  1.19450968E-04  1.62761977E-02  8.97282486E-02  1.58793224E-02  9.00864087E-02
  1.53254977E-02  8.98926209E-02 -4.43872603E-01 -7.24824523E-01 -3.41186805E-17
 -2.95953920E-17  2.79724776E-16  2.42640150E-16  1.61269201E-02  9.02161186E-02
  1.61594304E-02  8.99278335E-02 -4.43949317E-01 -7.24410623E-01  1.60501277E-02
  9.00129871E-02 -1.82503674E-03 -1.30689637E-03 -1.00335205E-03 -1.77490304E-03
  8.22326893E-03  1.14306478E-02  2.87533050E-03 -1.66483413E-03  9.81982196E-04
  5.72440872E-04 -2.32549936E-04 -3.34880778E-04 -2.37635927E-03 -1.87702145E-03
 -1.78053783E-03 -1.66284970E-03  2.88607778E-17  2.50345564E-17  2.65568564E-16
  2.30360607E-16 -2.99672387E-03 -4.04889992E-03  7.28263525E-04  4.20904512E-04
 -3.00255442E-04  1.05547249E-03  6.31037968E-04  4.81902556E-04 -6.31854547E-03
 -2.07946672E-03  2.41807333E-03  1.80316541E-03 -9.01593866E-03 -1.09487646E-02
  1.28633941E-03  2.24182250E-03 -1.61844526E-02 -9.01361116E-02  4.44041992E-01
  7.24491364E-01 -1.58272031E-02 -9.00320171E-02 -1.59427676E-02 -8.99290734E-02
  2.01873003E-17  1.75109664E-17 -3.81796041E-16 -3.31179598E-16  1.64425177E-02
  9.01954041E-02  1.60158796E-02  8.97559933E-02  1.61721036E-02  9.00036083E-02
 -4.43502749E-01 -7.24329080E-01  4.02581374E-04  3.94582928E-05  3.75915113E-04
  5.30762926E-05 -2.03222824E-03 -1.40641971E-03 -6.93124790E-04  5.13178925E-04
  9.20109127E-04  5.77959546E-04 -1.16495489E-03  1.17717935E-04 -3.73318133E-04
 -2.52681044E-03 -2.63258326E-03 -1.32802572E-03  2.37077866E-17  2.05647237E-17
  3.82571569E-16  3.31851911E-16  1.54719272E-03 -3.76463110E-05 -6.34191049E-04
  4.66273390E-05  2.18680968E-03  9.18412432E-04 -2.97594348E-04 -1.34074915E-04
 -1.61601174E-02 -8.97373581E-02  4.43579136E-01  7.24263894E-01 -1.64419224E-02
 -8.99842515E-02 -1.60463531E-02 -9.00765402E-02 -6.68127787E-04  9.59685525E-05
  3.95467928E-03  8.73067792E-04 -1.58975517E-04 -1.36890371E-04 -3.64015673E-04
 -7.38571059E-05  6.70460776E-18  5.81574353E-18 -6.51610079E-17 -5.65222981E-17
  8.74342376E-03  2.01825772E-02 -1.48381134E-03 -2.74206263E-03 -1.33898428E-03
 -2.71250975E-03  6.40743302E-04 -3.53702295E-03 -1.40259799E-03  2.33394921E-05
  2.96526801E-04  1.25068413E-04 -1.11361723E-04 -1.35763318E-03  4.06326001E-05
  3.03204776E-04  1.63323435E-02  8.95556766E-02  1.57398455E-02  9.02109627E-02
 -4.44005135E-01 -7.24962627E-01  1.53016573E-02  8.99311888E-02 -1.93575393E-17
 -1.67912110E-17  1.67376248E-16  1.45186519E-16  1.11044918E-03  2.08521087E-04
 -7.27528434E-04  1.21771524E-04  3.03269668E-03  5.54411266E-04 -2.94539763E-04
 -1.36205670E-04  4.43669077E-01  7.24219289E-01 -1.61369082E-02 -8.97360696E-02
 -1.59234410E-02 -9.02070087E-02 -1.61692275E-02 -8.98975920E-02  5.76653099E-04
  4.79529481E-04 -5.37010491E-03 -3.22898102E-03  9.22049129E-04  2.79309142E-04
  6.35792366E-04  4.16599999E-04  7.66216209E-18  6.64634994E-18 -1.89773560E-16
 -1.64614086E-16  6.21913199E-03  2.89436132E-03 -2.61081790E-03 -1.81238023E-03
  8.59407176E-03  1.07235046E-02 -5.34880009E-04 -2.54760507E-03  1.57546630E-02
  9.02708036E-02  1.62274877E-02  8.99853692E-02 -4.44543950E-01 -7.24390518E-01
  1.59774646E-02  8.99213562E-02 -1.73980212E-03 -1.34237166E-03  8.49033814E-03
  1.18128123E-02  8.05171541E-04 -2.04111561E-03 -5.60607918E-04 -1.79200378E-03
  2.65300088E-17  2.30127894E-17  1.18966177E-17  1.03194510E-17  4.45088065E-01
  7.25033582E-01 -1.61115456E-02 -9.01215540E-02 -1.57989267E-02 -8.99613046E-02
 -1.59972300E-02 -9.00588355E-02  4.47200017E-04  6.86577901E-04  9.05978406E-04
  3.57569456E-04 -5.21859560E-03 -4.09108614E-03  6.56906546E-04  6.34158746E-04
  4.89464399E-03  6.06781923E-03 -4.85543891E-03 -1.54985188E-03 -9.86160941E-03
 -1.71335543E-02 -9.24688170E-03 -1.41803392E-02  7.62578483E-17  6.61479541E-17
 -2.08435700E-16 -1.80802154E-16  5.94325293E-01 -6.09942553E-01 -2.91174077E-01
  3.68108082E-01  2.17005529E-01 -1.92355153E-01 -2.03786984E-01  2.69040543E-01
  3.08099038E-02  5.24238524E-03 -2.55387924E-01  3.24868133E-01  6.53247598E-01
 -6.81905599E-01 -1.45267679E-01  2.00115356E-01 -4.22133117E-01  5.24787573E-01
  5.09210096E-01 -5.04159961E-01  1.98418438E-01 -1.49845966E-01  1.31579221E-01
 -7.78272335E-02  8.17820135E-17 -8.41083056E-17 -3.61918113E-16  2.67943331E-16
  5.61701035E-01 -6.18764855E-01  4.17541935E-02 -4.89106599E-02 -5.49492066E-01
  6.24879513E-01 -3.70163106E-02  4.19745244E-02 -1.07339953E-01  9.25219394E-02
  2.58833561E-01 -3.26070571E-01 -3.80793567E-01  3.94184738E-01  1.41668184E-02
 -4.44131176E-02 -3.45958286E-01  4.22897727E-01 -3.80406559E-01  4.62762482E-01
  4.62312789E-01 -4.82047866E-01  4.84055179E-01 -5.10558073E-01 -2.03836078E-16
  1.86190215E-16 -3.09928581E-16  2.28834197E-16 -1.21269444E-02 -1.13432324E-02
  2.55891079E-01 -3.16428226E-01 -5.64220198E-01  6.34266904E-01  1.82703182E-01
 -2.31045359E-01  7.86831307E-01 -9.09237223E-01 -1.10445825E-01  1.32351165E-01
 -2.14535765E-01  2.52874682E-01 -4.33262692E-01  5.08335094E-01 -1.45466455E-01
  1.80205880E-01  4.96633446E-01 -5.66765341E-01 -1.49962645E-01  1.85643474E-01
 -1.26234310E-01  1.57985404E-01 -6.24491700E-16  6.46191574E-16  7.72040085E-16
 -8.26688333E-16 -1.57745431E-02  2.12511088E-02 -5.55576819E-01  6.55817164E-01
 -1.05664504E-01  1.25980886E-01  6.80468928E-01 -8.03413048E-01 -6.69257520E-02
  7.49682023E-02  1.69484327E-01 -2.03754650E-01  5.54606460E-02 -7.28776831E-02
 -1.87205979E-01  2.17321009E-01  5.64730275E-02 -6.80542161E-02 -4.16382289E-02
  4.85482354E-02  6.00718475E-01 -7.11205535E-01 -6.25306650E-01  7.36126604E-01
  1.76284484E-15 -1.83960688E-15 -1.29170502E-16  2.39775438E-16  2.97688556E-02
 -3.32932590E-02 -1.04349238E-01  1.22833467E-01 -6.13660024E-02  6.66571112E-02
  1.26609744E-01 -1.51410046E-01  2.52180349E-01 -3.01495922E-01 -8.42945621E-01
  9.99284838E-01 -2.53305372E-01  2.97090071E-01  8.28872308E-01 -9.86570120E-01
 -9.00190740E-02  1.07510448E-01 -2.29896588E-02  2.43507623E-02  2.08272945E-01
 -2.45206154E-01 -9.17543331E-02  1.10866155E-01  1.14082619E-15 -1.16845350E-15
  1.89773801E-17 -4.69450018E-16  9.45605566E-03 -7.30401266E-03  6.27597187E-01
 -7.47837994E-01  1.89832201E-02 -2.09871704E-02 -6.45494535E-01  7.71276213E-01
 -2.56311614E-02  3.08653170E-02  1.80388451E-02 -2.13196794E-02  2.25387635E-02
 -2.58449818E-02 -1.26369143E-02  1.53232224E-02  2.90393321E-02 -3.43425551E-02
  9.00960967E-03 -9.92017611E-03  6.18975166E-01 -7.37834170E-01 -6.53413204E-01
  7.80328346E-01  2.28556272E-16 -2.69607812E-16  8.41081252E-17  1.13209361E-16
  6.19031480E-02 -1.16027590E-01 -4.35366596E-01  4.82465157E-01  4.49645903E-01
 -5.96424525E-01 -3.80649173E-01  4.16081859E-01  6.84337914E-01 -8.45699012E-01
 -1.45596021E-01  1.64826455E-01 -2.15292576E-01  2.50213521E-01 -4.03021579E-01
  4.77828105E-01  3.32537773E-01 -3.68600585E-01 -4.75961780E-01  6.14854934E-01
  2.24337192E-01 -2.32390658E-01  1.62156191E-01 -1.57588181E-01 -1.36759770E-16
  1.29997604E-16 -6.16796610E-16  7.70807618E-16 -4.20595838E-01  5.07494269E-01
 -1.11434819E-01  1.20504501E-01  4.78059253E-01 -6.08449879E-01 -4.81119112E-02
  4.33720032E-02  2.14308316E-01 -1.95219475E-01  3.97318707E-01 -4.20353079E-01
 -3.32949150E-01  4.83709953E-01  1.63376417E-01 -1.34029171E-01 -9.51557807E-01
  1.03284872E+00  7.12349937E-02 -2.30945165E-01  4.43314083E-02 -2.03016735E-01
 -6.36296843E-02 -6.87141041E-02  2.07601368E-16 -2.15678442E-16 -1.83176809E-16
  1.73528060E-16 -3.26716291E-01  5.29893238E-01  4.99341302E-01 -5.08860937E-01
  1.23844257E-01 -3.59069230E-02  4.26047616E-01 -4.18609824E-01 -8.02239804E-02
 -1.30645295E-02 -5.36529916E-01  5.52015769E-01  3.62682761E-01 -5.69038037E-01
 -4.70653522E-01  4.71043253E-01 -3.68173781E-01  3.85967929E-01 -5.22656106E-01
  5.80468646E-01  1.94186300E-01 -3.26414143E-01  2.27627144E-01 -3.64887702E-01
  3.79667064E-15 -3.92350143E-15 -6.99756410E-16  6.44556980E-16 -2.55273487E-01
  2.86315244E-02 -5.30193873E-01  3.93457815E-01 -4.70530557E-01  3.17038834E-01
 -5.27641207E-01  3.90141838E-01 -4.65007411E-01  3.47250989E-01 -4.60055597E-01
  3.41254379E-01 -2.14631484E-01  2.36099793E-02 -4.01745847E-01  2.67122865E-01
 -3.30109506E-01  2.49610509E-01 -1.43984918E-01  1.03936308E-02 -3.01198595E-01
  2.11409351E-01 -3.01334856E-01  2.11833971E-01 -1.19840264E-15  1.23768581E-15
  1.97759350E-16 -1.72149146E-16 -2.27714096E-01  1.09368336E-01 -1.74746705E-01
  4.40850509E-02 -5.10168999E-01  4.93522824E-01 -2.11815015E-01  9.20813108E-02
  4.76116001E-01 -2.93612553E-01  3.23090869E-01 -9.16037829E-02  8.08832961E-01
 -7.42466645E-01  4.03683734E-01 -1.96559715E-01 -1.42571734E-01  3.44279143E-02
 -5.15550885E-01  5.33453535E-01 -1.49357566E-01  3.87439381E-02 -1.20899222E-01
  2.37916643E-03 -2.20866828E-15  2.28899945E-15 -1.21380046E-15  1.21379021E-15
  7.89171908E-01 -8.35073339E-01  1.97086461E-01 -1.55128322E-02  2.55492050E-01
 -9.46022779E-02  2.07281722E-01 -2.90135862E-02  7.44865270E-02 -1.11244486E-01
 -8.21105919E-03 -1.05990998E-03 -1.10198769E-01  1.34715478E-01 -2.83180427E-02
  2.52519006E-02 -2.36538329E-01 -2.44816132E-02 -4.85915897E-01  3.10305880E-01
 -6.44163634E-01  5.40240728E-01 -6.30205126E-01  5.17931627E-01 -5.13206801E-15
  5.29388739E-15  1.21737233E-16 -7.99358484E-19 -4.25926358E-15  5.95693937E-15
  7.28009431E-16 -8.54628196E-16  1.71782143E-15 -1.96112317E-15  3.33967324E-15
 -3.84342767E-15 -2.05276017E-15  1.59599500E-15 -3.47397396E-15  3.30447131E-15
  3.83681397E-16 -1.27646497E-15 -1.11400537E-15  4.68925168E-16  3.80954003E-16
  1.34816068E-15  1.54377832E-15 -2.66530165E-16  6.61860014E-15 -6.60457541E-15
  3.05010213E-15 -2.37613959E-15 -1.14981805E+00  1.18695880E+00  6.92498290E-11
 -7.14866934E-11  9.66657193E-17 -1.81073334E-16  5.24368816E-16 -6.24945529E-16
 -4.89260518E-16  5.53896437E-16  3.62423965E-16 -2.26158513E-16 -2.75453638E-16
  1.17916215E-16 -4.40631119E-16  1.57737723E-16 -1.47093532E-15  1.57929631E-15
 -8.35627543E-18 -3.77113886E-16  4.02252941E-16 -3.06512245E-16  1.71688941E-15
 -2.05821719E-15 -6.97187510E-16  1.07997227E-15 -4.67417069E-16  6.28174280E-16
 -6.92501100E-11  7.14869927E-11 -1.14981805E+00  1.18695880E+00
Beta MO coefficients                       R   N=         784
  7.83547014E-23 -2.12904885E-22  1.63217494E-21 -1.73005375E-21  2.64280998E-22
 -3.16609064E-22 -4.19485576E-22  1.02853919E-21  1.92142597E-21 -2.79603488E-21
  1.33483908E-21 -3.18780325E-21  9.98021279E-22 -1.66153430E-21 -4.33870525E-21
  7.74534822E-21  1.88335662E-21 -2.76472120E-21 -4.35933294E-22  9.46655685E-22
  2.67907475E-22  5.99640375E-23 -1.69106304E-21  1.84961147E-21 -5.92081261E-01
 -5.13586011E-01 -2.62671145E-21  2.71186822E-21 -7.14986753E-18  2.31943964E-16
  6.27776930E-17  1.82952911E-16  6.01813492E-17  3.55706617E-16  4.83218432E-16
  3.45506160E-17  1.31063401E-16  3.17087052E-16 -4.66825143E-16  2.57313681E-16
 -9.21260258E-17 -2.39404214E-16  9.24072037E-16  2.87948118E-16 -2.55292393E-16
 -1.68459092E-16  4.54963418E-16  4.15616076E-16  2.46343589E-16  1.18723803E-16
  2.19353831E-16  7.03849435E-17 -2.55913617E-18  2.64179977E-18 -5.92081261E-01
 -5.13586011E-01  1.65459970E-02  9.02832770E-02 -4.43581280E-01 -7.24308118E-01
  1.62676880E-02  8.99288066E-02  1.60165354E-02  8.97843482E-02  7.16087653E-04
 -1.46903337E-04  5.94740127E-04 -4.68718850E-05 -4.20423273E-03 -8.33535940E-04
 -3.75806228E-04  3.38267536E-04  9.46730171E-04  5.89801290E-04 -1.26826212E-03
  1.23106538E-04 -2.52088149E-03 -1.86839766E-03 -5.01024902E-04 -2.06086109E-03
  2.16078953E-17  1.87432258E-17  2.95287486E-16  2.56140073E-16 -9.80046197E-04
 -3.99035269E-04 -1.92420099E-05  1.66444030E-04  2.00160712E-03 -8.55768333E-04
 -4.50865240E-04  4.38028360E-04  1.62016092E-02  8.99036902E-02  1.60346372E-02
  9.00550775E-02  1.61915351E-02  8.99502387E-02 -4.43530218E-01 -7.24310198E-01
  4.79158416E-04  2.55041340E-05 -2.76677192E-03 -1.23854990E-03 -2.98184957E-05
  2.86226957E-04  3.69232232E-04  6.80659794E-05 -2.51985002E-17 -2.18578057E-17
  4.81784251E-16  4.17911737E-16 -7.50493024E-03 -4.14772335E-03  7.98053247E-04
  4.87864347E-04  8.52785643E-04  4.22090581E-04  7.61890473E-04  4.87174328E-04
 -1.20978663E-03 -5.42204265E-05  6.51108294E-04 -7.18727137E-05 -2.80189322E-03
 -6.80928446E-04  3.86532458E-04  1.04202792E-04 -4.43813954E-01 -7.24055337E-01
  1.64744559E-02  9.00505992E-02  1.67784050E-02  8.97512217E-02  1.66841638E-02
  8.98427009E-02  1.53387893E-17  1.33052473E-17 -2.30132809E-16 -1.99622917E-16
  8.01270843E-03  1.71018302E-02  4.63622233E-04 -3.05068778E-03 -8.02828500E-04
 -2.52525206E-03 -1.67000030E-03 -2.11025196E-03 -1.18619345E-03 -5.58818115E-05
  4.29486830E-04  9.86697524E-05 -1.54944015E-03 -1.11099003E-03  3.67326398E-04
  1.19450968E-04  1.62761977E-02  8.97282486E-02  1.58793224E-02  9.00864087E-02
  1.53254977E-02  8.98926209E-02 -4.43872603E-01 -7.24824523E-01 -3.41186805E-17
 -2.95953920E-17  2.79724776E-16  2.42640150E-16  1.61269201E-02  9.02161186E-02
  1.61594304E-02  8.99278335E-02 -4.43949317E-01 -7.24410623E-01  1.60501277E-02
  9.00129871E-02 -1.82503674E-03 -1.30689637E-03 -1.00335205E-03 -1.77490304E-03
  8.22326893E-03  1.14306478E-02  2.87533050E-03 -1.66483413E-03  9.81982196E-04
  5.72440872E-04 -2.32549936E-04 -3.34880778E-04 -2.37635927E-03 -1.87702145E-03
 -1.78053783E-03 -1.66284970E-03  2.88607778E-17  2.50345564E-17  2.65568564E-16
  2.30360607E-16 -2.99672387E-03 -4.04889992E-03  7.28263525E-04  4.20904512E-04
 -3.00255442E-04  1.05547249E-03  6.31037968E-04  4.81902556E-04 -6.31854547E-03
 -2.07946672E-03  2.41807333E-03  1.80316541E-03 -9.01593866E-03 -1.09487646E-02
  1.28633941E-03  2.24182250E-03 -1.61844526E-02 -9.01361116E-02  4.44041992E-01
  7.24491364E-01 -1.58272031E-02 -9.00320171E-02 -1.59427676E-02 -8.99290734E-02
  2.01873003E-17  1.75109664E-17 -3.81796041E-16 -3.31179598E-16  1.64425177E-02
  9.01954041E-02  1.60158796E-02  8.97559933E-02  1.61721036E-02  9.00036083E-02
 -4.43502749E-01 -7.24329080E-01  4.02581374E-04  3.94582928E-05  3.75915113E-04
  5.30762926E-05 -2.03222824E-03 -1.40641971E-03 -6.93124790E-04  5.13178925E-04
  9.20109127E-04  5.77959546E-04 -1.16495489E-03  1.17717935E-04 -3.73318133E-04
 -2.52681044E-03 -2.63258326E-03 -1.32802572E-03  2.37077866E-17  2.05647237E-17
  3.82571569E-16  3.31851911E-16  1.54719272E-03 -3.76463110E-05 -6.34191049E-04
  4.66273390E-05  2.18680968E-03  9.18412432E-04 -2.97594348E-04 -1.34074915E-04
 -1.61601174E-02 -8.97373581E-02  4.43579136E-01  7.24263894E-01 -1.64419224E-02
 -8.99842515E-02 -1.60463531E-02 -9.00765402E-02 -6.68127787E-04  9.59685525E-05
  3.95467928E-03  8.73067792E-04 -1.58975517E-04 -1.36890371E-04 -3.64015673E-04
 -7.38571059E-05  6.70460776E-18  5.81574353E-18 -6.51610079E-17 -5.65222981E-17
  8.74342376E-03  2.01825772E-02 -1.48381134E-03 -2.74206263E-03 -1.33898428E-03
 -2.71250975E-03  6.40743302E-04 -3.53702295E-03 -1.40259799E-03  2.33394921E-05
  2.96526801E-04  1.25068413E-04 -1.11361723E-04 -1.35763318E-03  4.06326001E-05
  3.03204776E-04  1.63323435E-02  8.95556766E-02  1.57398455E-02  9.02109627E-02
 -4.44005135E-01 -7.24962627E-01  1.53016573E-02  8.99311888E-02 -1.93575393E-17
 -1.67912110E-17  1.67376248E-16  1.45186519E-16  1.11044918E-03  2.08521087E-04
 -7.27528434E-04  1.21771524E-04  3.03269668E-03  5.54411266E-04 -2.94539763E-04
 -1.36205670E-04  4.43669077E-01  7.24219289E-01 -1.61369082E-02 -8.97360696E-02
 -1.59234410E-02 -9.02070087E-02 -1.61692275E-02 -8.98975920E-02  5.76653099E-04
  4.79529481E-04 -5.37010491E-03 -3.22898102E-03  9.22049129E-04  2.79309142E-04
  6.35792366E-04  4.16599999E-04  7.66216209E-18  6.64634994E-18 -1.89773560E-16
 -1.64614086E-16  6.21913199E-03  2.89436132E-03 -2.61081790E-03 -1.81238023E-03
  8.59407176E-03  1.07235046E-02 -5.34880009E-04 -2.54760507E-03  1.57546630E-02
  9.02708036E-02  1.62274877E-02  8.99853692E-02 -4.44543950E-01 -7.24390518E-01
  1.59774646E-02  8.99213562E-02 -1.73980212E-03 -1.34237166E-03  8.49033814E-03
  1.18128123E-02  8.05171541E-04 -2.04111561E-03 -5.60607918E-04 -1.79200378E-03
  2.65300088E-17  2.30127894E-17  1.18966177E-17  1.03194510E-17  4.45088065E-01
  7.25033582E-01 -1.61115456E-02 -9.01215540E-02 -1.57989267E-02 -8.99613046E-02
 -1.59972300E-02 -9.00588355E-02  4.47200017E-04  6.86577901E-04  9.05978406E-04
  3.57569456E-04 -5.21859560E-03 -4.09108614E-03  6.56906546E-04  6.34158746E-04
  4.89464399E-03  6.06781923E-03 -4.85543891E-03 -1.54985188E-03 -9.86160941E-03
 -1.71335543E-02 -9.24688170E-03 -1.41803392E-02  7.62578483E-17  6.61479541E-17
 -2.08435700E-16 -1.80802154E-16  5.94325293E-01 -6.09942553E-01 -2.91174077E-01
  3.68108082E-01  2.17005529E-01 -1.92355153E-01 -2.03786984E-01  2.69040543E-01
  3.08099038E-02  5.24238524E-03 -2.55387924E-01  3.24868133E-01  6.53247598E-01
 -6.81905599E-01 -1.45267679E-01  2.00115356E-01 -4.22133117E-01  5.24787573E-01
  5.09210096E-01 -5.04159961E-01  1.98418438E-01 -1.49845966E-01  1.31579221E-01
 -7.78272335E-02  8.17820135E-17 -8.41083056E-17 -3.61918113E-16  2.67943331E-16
  5.61701035E-01 -6.18764855E-01  4.17541935E-02 -4.89106599E-02 -5.49492066E-01
  6.24879513E-01 -3.70163106E-02  4.19745244E-02 -1.07339953E-01  9.25219394E-02
  2.58833561E-01 -3.26070571E-01 -3.80793567E-01  3.94184738E-01  1.41668184E-02
 -4.44131176E-02 -3.45958286E-01  4.22897727E-01 -3.80406559E-01  4.62762482E-01
  4.62312789E-01 -4.82047866E-01  4.84055179E-01 -5.10558073E-01 -2.03836078E-16
  1.86190215E-16 -3.09928581E-16  2.28834197E-16 -1.21269444E-02 -1.13432324E-02
  2.55891079E-01 -3.16428226E-01 -5.64220198E-01  6.34266904E-01  1.82703182E-01
 -2.31045359E-01  7.86831307E-01 -9.09237223E-01 -1.10445825E-01  1.32351165E-01
 -2.14535765E-01  2.52874682E-01 -4.33262692E-01  5.08335094E-01 -1.45466455E-01
  1.80205880E-01  4.96633446E-01 -5.66765341E-01 -1.49962645E-01  1.85643474E-01
 -1.26234310E-01  1.57985404E-01 -6.24491700E-16  6.46191574E-16  7.72040085E-16
 -8.26688333E-16 -1.57745431E-02  2.12511088E-02 -5.55576819E-01  6.55817164E-01
 -1.05664504E-01  1.25980886E-01  6.80468928E-01 -8.03413048E-01 -6.69257520E-02
  7.49682023E-02  1.69484327E-01 -2.03754650E-01  5.54606460E-02 -7.28776831E-02
 -1.87205979E-01  2.17321009E-01  5.64730275E-02 -6.80542161E-02 -4.16382289E-02
  4.85482354E-02  6.00718475E-01 -7.11205535E-01 -6.25306650E-01  7.36126604E-01
  1.76284484E-15 -1.83960688E-15 -1.29170502E-16  2.39775438E-16  2.97688556E-02
 -3.32932590E-02 -1.04349238E-01  1.22833467E-01 -6.13660024E-02  6.66571112E-02
  1.26609744E-01 -1.51410046E-01  2.52180349E-01 -3.01495922E-01 -8.42945621E-01
  9.99284838E-01 -2.53305372E-01  2.97090071E-01  8.28872308E-01 -9.86570120E-01
 -9.00190740E-02  1.07510448E-01 -2.29896588E-02  2.43507623E-02  2.08272945E-01
 -2.45206154E-01 -9.17543331E-02  1.10866155E-01  1.14082619E-15 -1.16845350E-15
  1.89773801E-17 -4.69450018E-16  9.45605566E-03 -7.30401266E-03  6.27597187E-01
 -7.47837994E-01  1.89832201E-02 -2.09871704E-02 -6.45494535E-01  7.71276213E-01
 -2.56311614E-02  3.08653170E-02  1.80388451E-02 -2.13196794E-02  2.25387635E-02
 -2.58449818E-02 -1.26369143E-02  1.53232224E-02  2.90393321E-02 -3.43425551E-02
  9.00960967E-03 -9.92017611E-03  6.18975166E-01 -7.37834170E-01 -6.53413204E-01
  7.80328346E-01  2.28556272E-16 -2.69607812E-16  8.41081252E-17  1.13209361E-16
  6.19031480E-02 -1.16027590E-01 -4.35366596E-01  4.82465157E-01  4.49645903E-01
 -5.96424525E-01 -3.80649173E-01  4.16081859E-01  6.84337914E-01 -8.45699012E-01
 -1.45596021E-01  1.64826455E-01 -2.15292576E-01  2.50213521E-01 -4.03021579E-01
  4.77828105E-01  3.32537773E-01 -3.68600585E-01 -4.75961780E-01  6.14854934E-01
  2.24337192E-01 -2.32390658E-01  1.62156191E-01 -1.57588181E-01 -1.36759770E-16
  1.29997604E-16 -6.16796610E-16  7.70807618E-16 -4.20595838E-01  5.07494269E-01
 -1.11434819E-01  1.20504501E-01  4.78059253E-01 -6.08449879E-01 -4.81119112E-02
  4.33720032E-02  2.14308316E-01 -1.95219475E-01  3.97318707E-01 -4.20353079E-01
 -3.32949150E-01  4.83709953E-01  1.63376417E-01 -1.34029171E-01 -9.51557807E-01
  1.03284872E+00  7.12349937E-02 -2.30945165E-01  4.43314083E-02 -2.03016735E-01
 -6.36296843E-02 -6.87141041E-02  2.07601368E-16 -2.15678442E-16 -1.83176809E-16
  1.73528060E-16 -3.26716291E-01  5.29893238E-01  4.99341302E-01 -5.08860937E-01
  1.23844257E-01 -3.59069230E-02  4.26047616E-01 -4.18609824E-01 -8.02239804E-02
 -1.30645295E-02 -5.36529916E-01  5.52015769E-01  3.62682761E-01 -5.69038037E-01
 -4.70653522E-01  4.71043253E-01 -3.68173781E-01  3.85967929E-01 -5.22656106E-01
  5.80468646E-01  1.94186300E-01 -3.26414143E-01  2.27627144E-01 -3.64887702E-01