                  Welcome to Q-Chem
     A Quantum Leap Into The Future Of Chemistry


 Q-Chem 4.3, Q-Chem, Inc., Pleasanton, CA (2015)

 Y. Shao,  Z. Gan,  E. Epifanovsky,  A. T. B. Gilbert,  M. Wormit,  
 J. Kussmann,  A. W. Lange,  A. Behn,  J. Deng,  X. Feng,  D. Ghosh,  
 M. Goldey,  P. R. Horn,  L. D. Jacobson,  I. Kaliman,  R. Z. Khaliullin,  
 T. Kus,  A. Landau,  J. Liu,  E. I. Proynov,  Y. M. Rhee,  R. M. Richard,  
 M. A. Rohrdanz,  R. P. Steele,  E. J. Sundstrom,  H. L. Woodcock III,  
 P. M. Zimmerman,  D. Zuev,  B. Albrecht,  E. Alguire,  B. Austin,  
 S. A. Baeppler,  G. J. O. Beran,  Y. A. Bernard,  E. Berquist,  
 K. Brandhorst,  K. B. Bravaya,  S. T. Brown,  D. Casanova,  C.-M. Chang,  
 Y. Chen,  S. H. Chien,  K. D. Closser,  D. L. Crittenden,  M. Diedenhofen,  
 R. A. DiStasio Jr.,  H. Do,  A. D. Dutoi,  R. G. Edgar,  P.-T. Fang,  
 S. Fatehi,  Q. Feng,  L. Fusti-Molnar,  A. Ghysels,  
 A. Golubeva-Zadorozhnaya,  J. Gomes,  A. Gunina,  M. W. D. Hanson-Heine,  
 P. H. P. Harbach,  A. W. Hauser,  E. G. Hohenstein,  Z. C. Holden,  K. Hui,  
 T.-C. Jagau,  H. Ji,  B. Kaduk,  K. Khistyaev,  Jaehoon Kim,  Jihan Kim,  
 R. A. King,  P. Klunzinger,  D. Kosenkov,  T. Kowalczyk,  C. M. Krauter,  
 K. U. Lao,  A. Laurent,  K. V. Lawler,  S. Lehtola,  S. V. Levchenko,  
 C. Y. Lin,  Y.-S. Lin,  F. Liu,  E. Livshits,  R. C. Lochan,  A. Luenser,  
 P. Manohar,  S. F. Manzer,  S.-P. Mao,  N. Mardirossian,  A. V. Marenich,  
 L. A. Martinez-Martinez,  S. A. Maurer,  N. J. Mayhall,  K. Nanda,  
 C. M. Oana,  R. Olivares-Amaya,  D. P. O'Neill,  J. A. Parkhill,  
 T. M. Perrine,  R. Peverati,  P. A. Pieniazek,  F. Plasser,  A. Prociuk,  
 D. R. Rehn,  E. Rosta,  N. J. Russ,  N. Sergueev,  S. M. Sharada,  
 S. Sharma,  D. W. Small,  A. Sodt,  T. Stauch,  T. Stein,  D. Stuck,  
 Y.-C. Su,  A. J. W. Thom,  T. Tsuchimochi,  L. Vogt,  O. Vydrov,  T. Wang,  
 M. A. Watson,  J. Wenzel,  A. White,  C. F. Williams,  V. Vanovschi,  
 S. Yeganeh,  S. R. Yost,  Z.-Q. You,  I. Y. Zhang,  X. Zhang,  Y. Zhao,  
 B. R. Brooks,  G. K. L. Chan,  D. M. Chipman,  C. J. Cramer,  
 W. A. Goddard III,  M. S. Gordon,  W. J. Hehre,  A. Klamt,  
 H. F. Schaefer III,  M. W. Schmidt,  C. D. Sherrill,  D. G. Truhlar,  
 A. Warshel,  X. Xu,  A. Aspuru-Guzik,  R. Baer,  A. T. Bell,  N. A. Besley,  
 J.-D. Chai,  A. Dreuw,  B. D. Dunietz,  T. R. Furlani,  S. R. Gwaltney,  
 C.-P. Hsu,  Y. Jung,  J. Kong,  D. S. Lambrecht,  W. Liang,  C. Ochsenfeld,  
 V. A. Rassolov,  L. V. Slipchenko,  J. E. Subotnik,  T. Van Voorhis,  
 J. M. Herbert,  A. I. Krylov,  P. M. W. Gill,  M. Head-Gordon

 Contributors to earlier versions of Q-Chem not listed above: 
 R. D. Adamson,  J. Baker,  E. F. C. Byrd,  A. K. Chakraborty,  C.-L. Cheng,  
 H. Dachsel,  R. J. Doerksen,  G. Hawkins,  A. Heyden,  S. Hirata,  
 G. Kedziora,  F. J. Keil,  C. Kelley,  P. P. Korambath,  W. Kurlancheek,  
 A. M. Lee,  M. S. Lee,  D. Liotard,  I. Lotan,  P. E. Maslen,  N. Nair,  
 D. Neuhauser,  R. Olson,  B. Peters,  J. Ritchie,  N. E. Schultz,  
 N. Shenvi,  A. C. Simmonett,  K. S. Thanthiriwatte,  Q. Wu,  W. Zhang

 Please cite Q-Chem as follows:
 Y. Shao et al., Mol. Phys. 113, 184-215 (2015)
 DOI: 10.1080/00268976.2014.952696

 Q-Chem 4.3.0 for Intel X86 EM64T Linux

 Parts of Q-Chem use Armadillo 5.200.1 (Boston Tea Smuggler).
 http://arma.sourceforge.net/

 Q-Chem begins on Mon Mar 20 16:11:03 2017  


Host: 0

     Scratch files written to /home/nmayhall/scratch_qchem/07//
 Dec1416 |home|nmayhall|qcSoftware|qchem|qchem.svn-casman|libmdc|qstr_RNUM -1
 Using version located at /home/nmayhall/qcSoftware/qchem/qchem.svn-casman/bin/qchem


Total Memory Limit in MB = 2000
Mega-Array Size in MB = 62

Checking the input file for inconsistencies... 	...done.

 Q-Chem warning in module /home/nmayhall/qcSoftware/qchem/qchem.svn-casman/forms1/BasisType.C, line 1452:

 You are not using the predefined 5D/6D in this basis set.

Finally everything over in PARseQInput

--------------------------------------------------------------
User input:
--------------------------------------------------------------
$rem
	exchange 		hf
	unrestricted		1
	basis			6-31g*	
	aux_basis		rimp2-vdz
	scf_guess		core	
	scf_convergence		8
	purecart		1111

	symmetry		0
	sym_ignore		1

	!correlation		sf-cas
	!cas_n_spin_flip		1
	!cas_local		1
	gui			2
$end

$development
	1sf_heis_projection	1
$end

$molecule
0 13
H         -0.73854       -0.54065        0.08576
H         -2.31340       -1.01748       -0.67017
H         -2.09582        0.65549       -0.01146
H         -2.21044       -0.75437        1.11995
H	1.47674	3.77203	0.09828
H	0.1685	4.36022	1.20546
H	0.18287	2.6348	0.65668
H	-0.21686	3.95528	-0.51743
H          3.48850       -0.87553       -0.06084
H          2.29649        0.48578       -0.00191
H          1.93960       -1.06676        0.85992
H          1.91588       -1.00965       -0.95022
He	10	10	10	
He	-10	10	10	
$end


--------------------------------------------------------------
 ----------------------------------------------------------------
             Standard Nuclear Orientation (Angstroms)
    I     Atom           X                Y                Z
 ----------------------------------------------------------------
    1      H      -0.7385400000    -0.5406500000     0.0857600000
    2      H      -2.3134000000    -1.0174800000    -0.6701700000
    3      H      -2.0958200000     0.6554900000    -0.0114600000
    4      H      -2.2104400000    -0.7543700000     1.1199500000
    5      H       1.4767400000     3.7720300000     0.0982800000
    6      H       0.1685000000     4.3602200000     1.2054600000
    7      H       0.1828700000     2.6348000000     0.6566800000
    8      H      -0.2168600000     3.9552800000    -0.5174300000
    9      H       3.4885000000    -0.8755300000    -0.0608400000
   10      H       2.2964900000     0.4857800000    -0.0019100000
   11      H       1.9396000000    -1.0667600000     0.8599200000
   12      H       1.9158800000    -1.0096500000    -0.9502200000
   13      He     10.0000000000    10.0000000000    10.0000000000
   14      He    -10.0000000000    10.0000000000    10.0000000000
 ----------------------------------------------------------------
 Nuclear Repulsion Energy =    12.4765865998 hartrees
 There are       14 alpha and        2 beta electrons
 Requested basis set is 6-31G(d)
 There are 28 shells and 28 basis functions

Total QAlloc Memory Limit   2000 MB
Mega-Array Size        61 MB
MEM_STATIC part        62 MB

finished with qalloc call

                       Distance Matrix (Angstroms)
             H (  1)   H (  2)   H (  3)   H (  4)   H (  5)   H (  6)
   H (  2)  1.810796
   H (  3)  1.811743  1.811096
   H (  4)  1.811550  1.812280  1.811334
   H (  5)  4.848384  6.155898  4.742157  5.926838
   H (  6)  5.108324  6.212686  4.509220  5.641427  1.811990
   H (  7)  3.355358  4.618554  3.091360  4.174808  1.810857  1.810646
   H (  8)  4.566112  5.398810  3.830811  5.369933  1.811342  1.811306
   H (  9)  4.242818  5.835536  5.790604  5.821242  5.066785  6.327637
   H ( 10)  3.205098  4.894635  4.395598  4.807178  3.388431  4.582289
   H ( 11)  2.836997  4.520134  4.473261  4.169896  4.920185  5.719118
   H ( 12)  2.887761  4.238549  4.443838  4.623558  4.914943  6.044485
   He( 13) 18.019814 19.668686 18.271783 18.536629 14.473342 14.346060
   He( 14) 17.180573 17.155792 15.812187 15.974636 16.387411 14.579076
             H (  7)   H (  8)   H (  9)   H ( 10)   H ( 11)   H ( 12)
   H (  8)  1.811625
   H (  9)  4.874879  6.105317
   H ( 10)  3.085355  4.315104  1.810394
   H ( 11)  4.102311  5.636337  1.812032  1.811216
   H ( 12)  4.343670  5.420924  1.811662  1.811206  1.811196
   He( 13) 15.424650 15.859987 16.183241 15.808310 16.461600 17.506362
   He( 14) 15.659969 15.584120 20.035900 18.486813 18.669984 19.573143
             He( 13)
   He( 14) 20.000000


 Q-Chem warning in module /home/nmayhall/qcSoftware/qchem/qchem.svn-casman/forms1/BasisType.C, line 1375:

 SAD: How to set up polarization functions for non-Pople basis?

 Requested basis set is rimp2-VDZ
 There are 82 shells and 186 basis functions
 Job number = 2, Threshold = 1.00E-11
Integral type ranges set in mkLRange.C for JobNum: 2  <1-7|1-7>
Symmetry turned off temporarily
 Using the largest function pair in Schwarz integrals
Total number of integrals generated =            1004
Symmetry turned back on
 A cutoff of  1.0D-11 yielded    278 shell pairs
 There are       278 function pairs
 Job number = 11, Threshold = 1.00E-11
Integral type ranges set in mkLRange.C for JobNum: 11  <1-1|8-8>

 -------------------------------------------------------
 OpenMP Integral Computing Module                       
 Release: version 1.0, May 2013, Q-Chem Inc. Pittsburgh 
 -------------------------------------------------------
 Integral Job Info:
 Integral job number is                      11
 Integral operator is                         1
 short-range coefficients                     0
 long-range coefficients              100000000
 Omega coefficients                           0
 if combine SR and LR in K                    0
 Integral screening is                        0
 Integral computing path is                   2
 max size of driver memory is            800000
 size of driver memory is                 11780
 size of scratch memory is               800000
 max col of scratch BK array                289
 max len of scratch array in speh3            1
 max len of scratch index in speh4            2
 max int batch size is                      520
 min int batch size is                       52
 fixed nKL is                               520
 max L of basis functions is                  0
 order of int derivative is                   0
 number of shells is                         28
 number of basis is                          28
 number of cartesian basis is                28
 number of contracted shell pairs           278
 number of primitive shell pairs            794
 maxK2 (contraction) of shell pair            9
 max number of K2 of shell pair               1
 max number of CS2 of shell pair            146
 max number of PS2 of shell pair            438
 mem total for path MDJ                    6768
 -------------------------------------------------------
 Smallest overlap matrix eigenvalue = 2.10E-01
 Multipole matrices computed through 2nd order

  Scale SEOQF with 1.000000e-02/1.000000e-02/1.000000e-02

 Standard Electronic Orientation quadrupole field applied
 Nucleus-field energy     =     0.0000000005 hartrees
GuessMan:  IGuess = 1
 Guess MOs from core Hamiltonian diagonalization
scfman initvdwdat 
 An unrestricted Hartree-Fock SCF calculation will be
 performed using Pulay DIIS extrapolation
 SCF converges when DIIS error is below 1.0E-08
Finding J and K together
 Job number = 22, Threshold = 1.00E-11
Integral type ranges set in mkLRange.C for JobNum: 22  <1-1|1-1>
Storing 4688.33% of integrals
Total number of integrals generated =           34850
 MakeJK  time:  CPU       0.01 s  wall       0.01 s
Fock build time:  0.01 s (CPU) 0.01 s (wall)
DIIS Errors:  Max 3.23E-01 RMS 2.88E-02

Current DIIS subspace size = 1
REM_GRID_RESTART_DIIS = 0

 ---------------------------------------
  Cycle       Energy         DIIS Error
 ---------------------------------------
    1      -9.5123445189      2.88E-02  00000
Finding J and K together
 Job number = 22, Threshold = 1.00E-11
Integral type ranges set in mkLRange.C for JobNum: 22  <1-1|1-1>
Storing 4688.33% of integrals
Reusing in-core integrals buffer for job 22
 MakeJK  time:  CPU       0.00 s  wall       0.00 s
Fock build time:  0.00 s (CPU) 0.00 s (wall)
DIIS Errors:  Max 2.54E-01 RMS 1.91E-02

Current DIIS subspace size = 2
REM_GRID_RESTART_DIIS = 0

    2     -11.3725555060      1.91E-02  00000
Finding J and K together
 Job number = 22, Threshold = 1.00E-11
Integral type ranges set in mkLRange.C for JobNum: 22  <1-1|1-1>
Storing 4688.33% of integrals
Reusing in-core integrals buffer for job 22
 MakeJK  time:  CPU       0.00 s  wall       0.00 s
Fock build time:  0.00 s (CPU) 0.00 s (wall)
DIIS Errors:  Max 1.08E-01 RMS 8.40E-03

Current DIIS subspace size = 3
REM_GRID_RESTART_DIIS = 0

    3     -11.4384406715      8.40E-03  00000
Finding J and K together
 Job number = 22, Threshold = 1.00E-11
Integral type ranges set in mkLRange.C for JobNum: 22  <1-1|1-1>
Storing 4688.33% of integrals
Reusing in-core integrals buffer for job 22
 MakeJK  time:  CPU       0.00 s  wall       0.00 s
Fock build time:  0.00 s (CPU) 0.00 s (wall)
DIIS Errors:  Max 8.89E-03 RMS 8.48E-04

Current DIIS subspace size = 4
REM_GRID_RESTART_DIIS = 0

    4     -11.4686492104      8.48E-04  00000
Finding J and K together
 Job number = 22, Threshold = 1.00E-11
Integral type ranges set in mkLRange.C for JobNum: 22  <1-1|1-1>
Storing 4688.33% of integrals
Reusing in-core integrals buffer for job 22
 MakeJK  time:  CPU       0.00 s  wall       0.00 s
Fock build time:  0.00 s (CPU) 0.00 s (wall)
DIIS Errors:  Max 1.42E-04 RMS 1.08E-05

Current DIIS subspace size = 5
REM_GRID_RESTART_DIIS = 0

    5     -11.4712319408      1.08E-05  00000
Finding J and K together
 Job number = 22, Threshold = 1.00E-11
Integral type ranges set in mkLRange.C for JobNum: 22  <1-1|1-1>
Storing 4688.33% of integrals
Reusing in-core integrals buffer for job 22
 MakeJK  time:  CPU       0.00 s  wall       0.00 s
Fock build time:  0.00 s (CPU) 0.00 s (wall)
DIIS Errors:  Max 9.68E-06 RMS 7.26E-07

Current DIIS subspace size = 6
REM_GRID_RESTART_DIIS = 0

    6     -11.4713362661      7.26E-07  00000
Finding J and K together
 Job number = 22, Threshold = 1.00E-11
Integral type ranges set in mkLRange.C for JobNum: 22  <1-1|1-1>
Storing 4688.33% of integrals
Reusing in-core integrals buffer for job 22
 MakeJK  time:  CPU       0.00 s  wall       0.00 s
Fock build time:  0.00 s (CPU) 0.00 s (wall)
DIIS Errors:  Max 8.60E-07 RMS 6.96E-08

Current DIIS subspace size = 7
REM_GRID_RESTART_DIIS = 0

    7     -11.4713532471      6.96E-08  00000
Finding J and K together
 Job number = 22, Threshold = 1.00E-11
Integral type ranges set in mkLRange.C for JobNum: 22  <1-1|1-1>
Storing 4688.33% of integrals
Reusing in-core integrals buffer for job 22
 MakeJK  time:  CPU       0.00 s  wall       0.00 s
Fock build time:  0.00 s (CPU) 0.00 s (wall)
DIIS Errors:  Max 1.70E-07 RMS 1.26E-08

Current DIIS subspace size = 8
REM_GRID_RESTART_DIIS = 0

    8     -11.4713563463      1.26E-08  00000
Finding J and K together
 Job number = 22, Threshold = 1.00E-11
Integral type ranges set in mkLRange.C for JobNum: 22  <1-1|1-1>
Storing 4688.33% of integrals
Reusing in-core integrals buffer for job 22
 MakeJK  time:  CPU       0.00 s  wall       0.00 s
Fock build time:  0.00 s (CPU) 0.00 s (wall)
DIIS Errors:  Max 1.06E-08 RMS 7.72E-10

Current DIIS subspace size = 9
REM_GRID_RESTART_DIIS = 0

    9     -11.4713566334      7.72E-10  00000 Convergence criterion met
 ---------------------------------------
 <S^2> = 42.0000
 SCF time:  CPU 0.04 s  wall 0.04 s
 SCF   energy in the final basis set = -11.4713566334
 Total energy in the final basis set = -11.4713566334
Symmetry turned off temporarily
 Analysis of SCF Wavefunction

 --------------------------------------------------------------

                    Orbital Energies (a.u.)
 --------------------------------------------------------------

 Alpha MOs
 -- Occupied --
 -0.914  -0.914  -0.710  -0.701  -0.698  -0.469  -0.466  -0.459
 -0.455  -0.454  -0.452  -0.448  -0.442  -0.438
 -- Virtual --
  0.822   0.858   0.880   0.905   0.918   0.928   0.963   0.976
  0.993   1.057   1.129   1.152   1.400   1.400

 Beta MOs
 -- Occupied --
 -0.914  -0.914
 -- Virtual --
 -0.051  -0.037  -0.033   0.137   0.143   0.153   0.160   0.163
  0.166   0.177   0.188   0.195   1.044   1.074   1.090   1.111
  1.121   1.130   1.160   1.174   1.189   1.260   1.326   1.348
  1.400   1.400
 --------------------------------------------------------------

          Ground-State Mulliken Net Atomic Charges

     Atom                 Charge (a.u.)    Spin (a.u.)
  --------------------------------------------------------
      1 H                     0.000090       0.999910
      2 H                     0.000013       0.999987
      3 H                    -0.000011       1.000011
      4 H                     0.000004       0.999996
      5 H                    -0.000017       1.000017
      6 H                     0.000011       0.999989
      7 H                     0.000016       0.999984
      8 H                    -0.000015       1.000015
      9 H                     0.000068       0.999932
     10 H                    -0.000018       1.000018
     11 H                    -0.000069       1.000069
     12 H                    -0.000072       1.000072
     13 He                    0.000000      -0.000000
     14 He                    0.000000      -0.000000
  --------------------------------------------------------
  Sum of atomic charges =     0.000000
  Sum of spin   charges =    12.000000

 -----------------------------------------------------------------
                    Cartesian Multipole Moments
 -----------------------------------------------------------------
    Charge (ESU x 10^10)
                 0.0000
    Dipole Moment (Debye)
         X      -0.0004      Y      -0.0005      Z       0.0003
       Tot       0.0007
    Quadrupole Moments (Debye-Ang)
        XX     -19.6142     XY       0.0145     YY     -19.5380
        XZ      -0.0002     YZ      -0.0070     ZZ     -19.5128
    Octopole Moments (Debye-Ang^2)
       XXX     -19.5131    XXY     -35.7250    XYY      -4.8401
       YYY    -109.8758    XXZ     -22.9175    XYZ      -0.0104
       YYZ     -23.8090    XZZ      -4.1132    YZZ     -35.6482
       ZZZ     -70.7100
    Hexadecapole Moments (Debye-Ang^3)
      XXXX   -1642.5301   XXXY     -13.3044   XXYY    -575.2378
      XYYY     -11.2356   YYYY   -1792.8776   XXXZ       3.4198
      XXYZ    -214.6871   XYYZ       0.0625   YYYZ    -653.5306
      XXZZ    -491.0300   XYZZ      -3.5954   YYZZ    -525.1285
      XZZZ       4.4606   YZZZ    -648.2299   ZZZZ   -1318.2274
 -----------------------------------------------------------------
 JobOver = TRUE
Archival summary:
1\1\sinatra\SP\HF\6-31G*\e212()\nmayhall\MonMar2016:11:032017MonMar2016:11:032017\0\\#,HF,6-31G*,\\0,13\H\H,1,1.8108\H,2,1.8111,1,60.0291\H,3,1.81133,2,60.0389,1,70.5227,0\H,1,2.837,2,152.386,3,178.05,0\H,5,1.8112,1,73.0863,2,-68.5028,0\H,6,1.81121,5,60.0005,1,-92.9521,0\H,7,1.81039,6,60.0315,5,-70.571,0\H,7,3.08536,6,122.881,5,97.0324,0\H,9,1.81065,7,137.212,6,162.951,0\H,9,1.81086,7,83.2306,6,133.231,0\H,10,1.81131,9,60.0237,7,-105.138,0\He,10,14.3461,9,123.709,7,33.3397,0\He,10,14.5791,9,123.848,7,145.916,0\\HF=-11.4713566\\@

 Total job time:  0.10s(wall), 0.10s(cpu) 
 Mon Mar 20 16:11:03 2017

        *************************************************************
        *                                                           *
        *  Thank you very much for using Q-Chem.  Have a nice day.  *
        *                                                           *
        *************************************************************


*** MISSION COMPLETED -- STARFLEET OUT ***

 
User input: 2 of 2 
 
                  Welcome to Q-Chem
     A Quantum Leap Into The Future Of Chemistry


 Q-Chem 4.3, Q-Chem, Inc., Pleasanton, CA (2015)

 Y. Shao,  Z. Gan,  E. Epifanovsky,  A. T. B. Gilbert,  M. Wormit,  
 J. Kussmann,  A. W. Lange,  A. Behn,  J. Deng,  X. Feng,  D. Ghosh,  
 M. Goldey,  P. R. Horn,  L. D. Jacobson,  I. Kaliman,  R. Z. Khaliullin,  
 T. Kus,  A. Landau,  J. Liu,  E. I. Proynov,  Y. M. Rhee,  R. M. Richard,  
 M. A. Rohrdanz,  R. P. Steele,  E. J. Sundstrom,  H. L. Woodcock III,  
 P. M. Zimmerman,  D. Zuev,  B. Albrecht,  E. Alguire,  B. Austin,  
 S. A. Baeppler,  G. J. O. Beran,  Y. A. Bernard,  E. Berquist,  
 K. Brandhorst,  K. B. Bravaya,  S. T. Brown,  D. Casanova,  C.-M. Chang,  
 Y. Chen,  S. H. Chien,  K. D. Closser,  D. L. Crittenden,  M. Diedenhofen,  
 R. A. DiStasio Jr.,  H. Do,  A. D. Dutoi,  R. G. Edgar,  P.-T. Fang,  
 S. Fatehi,  Q. Feng,  L. Fusti-Molnar,  A. Ghysels,  
 A. Golubeva-Zadorozhnaya,  J. Gomes,  A. Gunina,  M. W. D. Hanson-Heine,  
 P. H. P. Harbach,  A. W. Hauser,  E. G. Hohenstein,  Z. C. Holden,  K. Hui,  
 T.-C. Jagau,  H. Ji,  B. Kaduk,  K. Khistyaev,  Jaehoon Kim,  Jihan Kim,  
 R. A. King,  P. Klunzinger,  D. Kosenkov,  T. Kowalczyk,  C. M. Krauter,  
 K. U. Lao,  A. Laurent,  K. V. Lawler,  S. Lehtola,  S. V. Levchenko,  
 C. Y. Lin,  Y.-S. Lin,  F. Liu,  E. Livshits,  R. C. Lochan,  A. Luenser,  
 P. Manohar,  S. F. Manzer,  S.-P. Mao,  N. Mardirossian,  A. V. Marenich,  
 L. A. Martinez-Martinez,  S. A. Maurer,  N. J. Mayhall,  K. Nanda,  
 C. M. Oana,  R. Olivares-Amaya,  D. P. O'Neill,  J. A. Parkhill,  
 T. M. Perrine,  R. Peverati,  P. A. Pieniazek,  F. Plasser,  A. Prociuk,  
 D. R. Rehn,  E. Rosta,  N. J. Russ,  N. Sergueev,  S. M. Sharada,  
 S. Sharma,  D. W. Small,  A. Sodt,  T. Stauch,  T. Stein,  D. Stuck,  
 Y.-C. Su,  A. J. W. Thom,  T. Tsuchimochi,  L. Vogt,  O. Vydrov,  T. Wang,  
 M. A. Watson,  J. Wenzel,  A. White,  C. F. Williams,  V. Vanovschi,  
 S. Yeganeh,  S. R. Yost,  Z.-Q. You,  I. Y. Zhang,  X. Zhang,  Y. Zhao,  
 B. R. Brooks,  G. K. L. Chan,  D. M. Chipman,  C. J. Cramer,  
 W. A. Goddard III,  M. S. Gordon,  W. J. Hehre,  A. Klamt,  
 H. F. Schaefer III,  M. W. Schmidt,  C. D. Sherrill,  D. G. Truhlar,  
 A. Warshel,  X. Xu,  A. Aspuru-Guzik,  R. Baer,  A. T. Bell,  N. A. Besley,  
 J.-D. Chai,  A. Dreuw,  B. D. Dunietz,  T. R. Furlani,  S. R. Gwaltney,  
 C.-P. Hsu,  Y. Jung,  J. Kong,  D. S. Lambrecht,  W. Liang,  C. Ochsenfeld,  
 V. A. Rassolov,  L. V. Slipchenko,  J. E. Subotnik,  T. Van Voorhis,  
 J. M. Herbert,  A. I. Krylov,  P. M. W. Gill,  M. Head-Gordon

 Contributors to earlier versions of Q-Chem not listed above: 
 R. D. Adamson,  J. Baker,  E. F. C. Byrd,  A. K. Chakraborty,  C.-L. Cheng,  
 H. Dachsel,  R. J. Doerksen,  G. Hawkins,  A. Heyden,  S. Hirata,  
 G. Kedziora,  F. J. Keil,  C. Kelley,  P. P. Korambath,  W. Kurlancheek,  
 A. M. Lee,  M. S. Lee,  D. Liotard,  I. Lotan,  P. E. Maslen,  N. Nair,  
 D. Neuhauser,  R. Olson,  B. Peters,  J. Ritchie,  N. E. Schultz,  
 N. Shenvi,  A. C. Simmonett,  K. S. Thanthiriwatte,  Q. Wu,  W. Zhang

 Please cite Q-Chem as follows:
 Y. Shao et al., Mol. Phys. 113, 184-215 (2015)
 DOI: 10.1080/00268976.2014.952696

 Q-Chem 4.3.0 for Intel X86 EM64T Linux

 Parts of Q-Chem use Armadillo 5.200.1 (Boston Tea Smuggler).
 http://arma.sourceforge.net/

 Q-Chem begins on Mon Mar 20 16:11:03 2017  


Host: 0

     Scratch files written to /home/nmayhall/scratch_qchem/07//
 Dec1416 |home|nmayhall|qcSoftware|qchem|qchem.svn-casman|libmdc|qstr_RNUM -1
 Using version located at /home/nmayhall/qcSoftware/qchem/qchem.svn-casman/bin/qchem

 Turning off symmetry for CASMAN

Total Memory Limit in MB = 2000
Mega-Array Size in MB = 62

Checking the input file for inconsistencies... 	...done.

 Q-Chem warning in module /home/nmayhall/qcSoftware/qchem/qchem.svn-casman/forms1/BasisType.C, line 1452:

 You are not using the predefined 5D/6D in this basis set.

Finally everything over in PARseQInput

--------------------------------------------------------------
User input:
--------------------------------------------------------------
$rem
	exchange 		hf
	unrestricted		0
	basis			6-31g*	
	aux_basis		rimp2-vdz
	scf_guess		read	
	scf_convergence		8
	purecart		1111

	symmetry		0
	sym_ignore		1

	correlation		sf-cas
	cas_n_spin_flip		1
	cas_local		1
	gui			2
$end

$development
	1sf_heis_projection	1
	scf_corresponding_orbs	1
$end

$molecule
read
$end

--------------------------------------------------------------
 ----------------------------------------------------------------
             Standard Nuclear Orientation (Angstroms)
    I     Atom           X                Y                Z
 ----------------------------------------------------------------
    1      H      -0.7385400000    -0.5406500000     0.0857600000
    2      H      -2.3134000000    -1.0174800000    -0.6701700000
    3      H      -2.0958200000     0.6554900000    -0.0114600000
    4      H      -2.2104400000    -0.7543700000     1.1199500000
    5      H       1.4767400000     3.7720300000     0.0982800000
    6      H       0.1685000000     4.3602200000     1.2054600000
    7      H       0.1828700000     2.6348000000     0.6566800000
    8      H      -0.2168600000     3.9552800000    -0.5174300000
    9      H       3.4885000000    -0.8755300000    -0.0608400000
   10      H       2.2964900000     0.4857800000    -0.0019100000
   11      H       1.9396000000    -1.0667600000     0.8599200000
   12      H       1.9158800000    -1.0096500000    -0.9502200000
   13      He     10.0000000000    10.0000000000    10.0000000000
   14      He    -10.0000000000    10.0000000000    10.0000000000
 ----------------------------------------------------------------
 Nuclear Repulsion Energy =    12.4765865998 hartrees
 There are       14 alpha and        2 beta electrons
 Requested basis set is 6-31G(d)
 There are 28 shells and 28 basis functions

Total QAlloc Memory Limit   2000 MB
Mega-Array Size        61 MB
MEM_STATIC part        62 MB

finished with qalloc call

                       Distance Matrix (Angstroms)
             H (  1)   H (  2)   H (  3)   H (  4)   H (  5)   H (  6)
   H (  2)  1.810796
   H (  3)  1.811743  1.811096
   H (  4)  1.811550  1.812280  1.811334
   H (  5)  4.848384  6.155898  4.742157  5.926838
   H (  6)  5.108324  6.212686  4.509220  5.641427  1.811990
   H (  7)  3.355358  4.618554  3.091360  4.174808  1.810857  1.810646
   H (  8)  4.566112  5.398810  3.830811  5.369933  1.811342  1.811306
   H (  9)  4.242818  5.835536  5.790604  5.821242  5.066785  6.327637
   H ( 10)  3.205098  4.894635  4.395598  4.807178  3.388431  4.582289
   H ( 11)  2.836997  4.520134  4.473261  4.169896  4.920185  5.719118
   H ( 12)  2.887761  4.238549  4.443838  4.623558  4.914943  6.044485
   He( 13) 18.019814 19.668686 18.271783 18.536629 14.473342 14.346060
   He( 14) 17.180573 17.155792 15.812187 15.974636 16.387411 14.579076
             H (  7)   H (  8)   H (  9)   H ( 10)   H ( 11)   H ( 12)
   H (  8)  1.811625
   H (  9)  4.874879  6.105317
   H ( 10)  3.085355  4.315104  1.810394
   H ( 11)  4.102311  5.636337  1.812032  1.811216
   H ( 12)  4.343670  5.420924  1.811662  1.811206  1.811196
   He( 13) 15.424650 15.859987 16.183241 15.808310 16.461600 17.506362
   He( 14) 15.659969 15.584120 20.035900 18.486813 18.669984 19.573143
             He( 13)
   He( 14) 20.000000


 Q-Chem warning in module /home/nmayhall/qcSoftware/qchem/qchem.svn-casman/forms1/BasisType.C, line 1375:

 SAD: How to set up polarization functions for non-Pople basis?

 Requested basis set is rimp2-VDZ
 There are 82 shells and 186 basis functions
 Job number = 2, Threshold = 1.00E-12
Integral type ranges set in mkLRange.C for JobNum: 2  <1-7|1-7>
Symmetry turned off temporarily
 Using the largest function pair in Schwarz integrals
Total number of integrals generated =            1009
Symmetry turned back on
 A cutoff of  1.0D-12 yielded    283 shell pairs
 There are       283 function pairs
 Job number = 11, Threshold = 1.00E-12
Integral type ranges set in mkLRange.C for JobNum: 11  <1-1|8-8>

 -------------------------------------------------------
 OpenMP Integral Computing Module                       
 Release: version 1.0, May 2013, Q-Chem Inc. Pittsburgh 
 -------------------------------------------------------
 Integral Job Info:
 Integral job number is                      11
 Integral operator is                         1
 short-range coefficients                     0
 long-range coefficients              100000000
 Omega coefficients                           0
 if combine SR and LR in K                    0
 Integral screening is                        0
 Integral computing path is                   2
 max size of driver memory is            800000
 size of driver memory is                 11780
 size of scratch memory is               800000
 max col of scratch BK array                289
 max len of scratch array in speh3            1
 max len of scratch index in speh4            2
 max int batch size is                      520
 min int batch size is                       52
 fixed nKL is                               520
 max L of basis functions is                  0
 order of int derivative is                   0
 number of shells is                         28
 number of basis is                          28
 number of cartesian basis is                28
 number of contracted shell pairs           283
 number of primitive shell pairs            803
 maxK2 (contraction) of shell pair            9
 max number of K2 of shell pair               1
 max number of CS2 of shell pair            147
 max number of PS2 of shell pair            441
 mem total for path MDJ                    6780
 -------------------------------------------------------
 Smallest overlap matrix eigenvalue = 2.10E-01
 Multipole matrices computed through 2nd order

  Scale SEOQF with 1.000000e-02/1.000000e-02/1.000000e-02

 Standard Electronic Orientation quadrupole field applied
 Nucleus-field energy     =     0.0000000005 hartrees
GuessMan:  IGuess = 1000
 Guess MOs from SCF MO coefficient file
 Reading MOs from coefficient file
 Reading MOs from coefficient file
scfman initvdwdat 
 A restricted Hartree-Fock SCF calculation will be
 performed using Geometric Direct Minimization
 SCF converges when RMS gradient is below 1.0E-08
Finding J and K together
 Job number = 22, Threshold = 1.00E-12
Integral type ranges set in mkLRange.C for JobNum: 22  <1-1|1-1>
Storing 4524.42% of integrals
Total number of integrals generated =           36345
 MakeJK  time:  CPU       0.01 s  wall       0.01 s
Fock build time:  0.01 s (CPU) 0.01 s (wall)
 ---------------------------------------
  Cycle       Energy        RMS Gradient
 ---------------------------------------
    1     -11.4713566607      9.86E-05  00000 Normal BFGS step
Finding J and K together
 Job number = 22, Threshold = 1.00E-12
Integral type ranges set in mkLRange.C for JobNum: 22  <1-1|1-1>
Storing 4524.42% of integrals
Reusing in-core integrals buffer for job 22
 MakeJK  time:  CPU       0.00 s  wall       0.00 s
Fock build time:  0.00 s (CPU) 0.00 s (wall)
    2     -11.4713566659      4.23E-10  00000 Convergence criterion met
 ---------------------------------------
 SCF time:  CPU 0.02 s  wall 0.02 s
 Obtaining Corresponding orbitals

 Forming corresponding orbitals block-by-block...
 Size of singly occupied alpha block:      12 : 12.0000
 Size of doubly occupied block:             2 : 2.0000
 Size of singly occupied beta block:        0 : 0.0000
 Size of unoccupied block:                 14 : 14.0000
 Use scf_boys =     0 (Canonical)
                    1 (Boys)
                    2 (Pipek-Mezey)
                    3 (ER)
 Build new fock matrix
 I'm here
 I'm here
 Calling AOints...
 Job number = 22, Threshold = 1.00E-12
Integral type ranges set in mkLRange.C for JobNum: 22  <1-1|1-1>
Storing 4524.42% of integrals
 done.
 E(SCF): disk=    -11.471356665853 current=    -11.471356665853 diff=  -1.776e-15
 SCF   energy in the final basis set = -11.4713566659
 Total energy in the final basis set = -11.4713566659
 DevKeyword Parameters: 
 1sf_heis_projection                   1
scf_corresponding_orbs                   1


 ========================================================
                       In SF-CAS-CI                      
 ========================================================
 DevKeyword Parameters: 
 1sf_heis_projection                   1
scf_corresponding_orbs                   1

 Forming orbitals for SF-CAS calculation.
NBas   : 28
NOrb   : 28
NDOcc  : 2
NSOcc  : 12
NDVir  : 14
ISpin  : 0
e_hf: -11.47135667
 Using OPT1 Orbitals: Favg | Favg | Favg 
 A/B mix in Doubly occupied F  : 0.50000000
 A/B mix in Singly occupied F  : 0.50000000
 A/B mix in Doubly unoccupied F: 0.50000000
 Max of F(beta)ds      : 9.470e-16
 Max of F(alpha)sv     : 7.657e-12
 Max of F(average)dv   : 2.436e-11
 Orbital Energies  (D):
    1    -0.91413150    -0.91413150
    2    -0.91412572    -0.91412572
 Orbital Energies  (S):
    3    -0.36644067    -0.36644067
    4    -0.35635906    -0.35635906
    5    -0.35289518    -0.35289518
    6    -0.14530535    -0.14530535
    7    -0.14169877    -0.14169877
    8    -0.13319952    -0.13319952
    9    -0.12851755    -0.12851755
   10    -0.12659145    -0.12659145
   11    -0.12465246    -0.12465246
   12    -0.11857529    -0.11857529
   13    -0.11072310    -0.11072310
   14    -0.10605943    -0.10605943
 Orbital Energies  (V):
   15     0.91154517     0.91154517
   16     0.94597526     0.94597526
   17     0.96522569     0.96522569
   18     0.98911912     0.98911912
   19     1.00102904     1.00102904
   20     1.01084616     1.01084616
   21     1.04425549     1.04425549
   22     1.05825388     1.05825388
   23     1.07493690     1.07493690
   24     1.14560592     1.14560592
   25     1.21506482     1.21506482
   26     1.23802493     1.23802493
   27     1.39985446     1.39985446
   28     1.39986024     1.39986024
 tr(Pa)     :   14.0000000000
 tr(Pb)     :    2.0000000000
 E(core) with new P : -38.04765961
 E(HF) with new P   : -11.47135667
 Difference in Ehf  :   3.0198e-14

 Number of spin flips: 1
 Use cas_local =    0 (Canonical)
                    1 (Boys)
                    2 (Pipek-Mezey)
                    3 (ER)
 Using Boys orbitals in casman
 
 
 
Calling Get_Boys in C++
 
 
 
Orbital 8 Variance 11.50807604
Orbital 2 Variance 20.43005830
Orbital 9 Variance 22.04391165
Orbital 3 Variance 23.45801534
Orbital 12 Variance 23.79452267
Orbital 7 Variance 24.98750638
Orbital 5 Variance 25.22767147
Orbital 1 Variance 27.92196151
Orbital 6 Variance 28.35786920
Orbital 11 Variance 28.44544205
Orbital 10 Variance 29.09411187
Orbital 4 Variance 29.87502622
          ***** NUMBER OF SADDLE POINTS SO FAR = 0 ******

Initially in boys_jacobi.C before sweep, get_boys, boysval = 133.684235
In BOYS_JACOBI SWEEPS for get_boys, ending in round     5  because max_diff = 9.602697e-07


---> BEGIN 2nd Der Calculation    ******  
Guessing MaxD =  20 and MinD = 10
in get_boys.C: p = 0 guessthresh  52.5775661944 numsofar 18 MinD 10
in get_boys.C: p = 1 guessthresh  52.0775661944 numsofar 18 MinD 10
in get_boys.C: p = 2 guessthresh  51.8275661944 numsofar 18 MinD 10
in get_boys.C: p = 3 guessthresh  51.7025661944 numsofar 6 MinD 10
DimInGuess 6 mineval  51.5775661944 guessthresh  51.7025661944
round 0 sizeofsub 6 eval0 5.095910e+01 diffeval0 1.000500e+05 length_qM 1.112015e+00 thresh 1.000000e-08
round 1 sizeofsub 7 eval0 5.036286e+01 diffeval0 5.962362e-01 length_qM 1.078484e-01 thresh 1.000000e-08
round 2 sizeofsub 8 eval0 5.036209e+01 diffeval0 7.677078e-04 length_qM 2.457056e-01 thresh 1.000000e-08
round 3 sizeofsub 9 eval0 5.036069e+01 diffeval0 1.399933e-03 length_qM 1.686283e-02 thresh 1.000000e-08
round 4 sizeofsub 10 eval0 5.036069e+01 diffeval0 3.580298e-06 length_qM 9.948638e-03 thresh 1.000000e-08
round 5 sizeofsub 11 eval0 5.036068e+01 diffeval0 8.076268e-06 length_qM 5.002252e-03 thresh 1.000000e-08
round 6 sizeofsub 12 eval0 5.036068e+01 diffeval0 1.588766e-06 length_qM 1.403164e-03 thresh 1.000000e-08
round 7 sizeofsub 13 eval0 5.036068e+01 diffeval0 7.647799e-09 length_qM 1.223660e-05 thresh 1.000000e-08
round 8 sizeofsub 14 eval0 5.036068e+01 diffeval0 2.195577e-12 length_qM 2.408807e-06 thresh 1.000000e-08
round 9 sizeofsub 15 eval0 5.036068e+01 diffeval0 2.060574e-12 length_qM 1.170282e-05 thresh 1.000000e-08
round 10 sizeofsub 16 eval0 5.036068e+01 diffeval0 1.300293e-12 length_qM 5.444128e-07 thresh 1.000000e-08
Converged to smallest eigenvalue: eval0 5.036068e+01

Success!!! No Negative Eigenvalues: Ending Get Boys in C++ ...Bye Bye
Orbital 12 Variance 2.76523512
Orbital 9 Variance 2.77112948
Orbital 11 Variance 2.77149778
Orbital 4 Variance 2.77262023
Orbital 5 Variance 2.77398488
Orbital 6 Variance 2.77463073
Orbital 3 Variance 2.77559447
Orbital 7 Variance 2.77614497
Orbital 2 Variance 2.77635527
Orbital 1 Variance 2.77644423
Orbital 10 Variance 2.77654966
Orbital 8 Variance 2.77659684
EXECUTING ORTHO_FUNC DESTRUCTOR

 Dimensions of orbital sub-spaces:    
 Number Hole Orbs:Alpha:Beta:       2    2    2
 Number Active Orbs:Alpha:Beta:    12   11    1
 Number Part Orbs:Alpha:Beta:      14    0    0

 Dimensions in SF-RAS-hp calculation: 
 Number of active space determinants:  144
 Number of hole space determinants:    1608
 Number of part space determinants:    11256
 Number of hole-part determinants:     130060
 Total 1x space:                       13008
 Total singles space:                  143068
 REM_MEM_TOT: 2000
 Memory Used: 0
 Memory Left: 2000
 Memory Need: 2
 Constructing 1e MO integrals
 Form (P|Q)**(-1/2)...
 Job number = 66, Threshold = 1.00E-12
Integral type ranges set in mkLRange.C for JobNum: 66  <2-7|2-7>
Symmetry turned off temporarily
Storing 4524.42% of integrals
Total number of integrals generated =           19965
Symmetry turned back on
 Forming (pq|P)...
 Forming Active-Active (aa|P) integrals...

 Entering first-index batching code with I1Strt =    3 batch size =   12
 Job number = 65, Threshold = 1.00E-12
Integral type ranges set in mkLRange.C for JobNum: 65  <1-1|2-7>
Symmetry turned off temporarily
Storing 4524.42% of integrals
Total number of integrals generated =           56034
Symmetry turned back on
 Forming Active-Active B integrals...
 Contracting B matrices to form 2e integrals. 
 Forming 2J-K over o,v with exact integrals
 Calling AOints... Job number = 22, Threshold = 1.00E-12
Integral type ranges set in mkLRange.C for JobNum: 22  <1-1|1-1>
Storing 4524.42% of integrals
Total number of integrals generated =           36345
 done.

 ROHF energy found on disk: 
 E(ROHF):         -11.47135667
-11.47135667
 First 10 Diagonal elements of H: 
 11111111111_ | 1___________        -11.07867901
 11111111111_ | _1__________        -10.92237725
 11111111111_ | __1_________        -10.93121170
 11111111111_ | ___1________        -10.99202124
 11111111111_ | ____1_______        -11.07801721
 11111111111_ | _____1______        -10.97283320
 11111111111_ | ______1_____        -11.07852530
 11111111111_ | _______1____        -10.90983993
 11111111111_ | ________1___        -10.99500977
 11111111111_ | _________1__        -10.91537583
 Fill S2_CAS Matrix...  done.
 Fill H_CAS Matrix...  done.

 Diagonalizing H_CAS 
 Entering cast_sfcas_to_sfcis
 ===================================================================
 Theory           State:          Energy (au)       (eV)       <S2>
 -------------------------------------------------------------------
 SF-CAS               1:       -11.5295634863     0.0000    30.0000
 SF-CAS               2:       -11.5287959905     0.0209    30.0000
 SF-CAS               3:       -11.5281533999     0.0384    30.0000
 SF-CAS               4:       -11.5280176775     0.0421    30.0000
 SF-CAS               5:       -11.5277386543     0.0497    30.0000
 SF-CAS               6:       -11.5276978247     0.0508    30.0000
 SF-CAS               7:       -11.5276741540     0.0514    30.0000
 SF-CAS               8:       -11.5275396071     0.0551    30.0000
 SF-CAS               9:       -11.5274930244     0.0563    30.0000
 SF-CAS              10:       -11.4726562862     1.5485    30.0000
 SF-CAS              11:       -11.4719825835     1.5669    30.0000
 SF-CAS              12:       -11.4713566659     1.5839    42.0000
 SF-CAS              13:       -11.2091083907     8.7201    30.0000
 SF-CAS              14:       -11.2043451402     8.8497    30.0000
 SF-CAS              15:       -11.2035410652     8.8716    30.0000
 SF-CAS              16:       -11.2031997974     8.8809    30.0000
 SF-CAS              17:       -11.2027442120     8.8933    30.0000
 SF-CAS              18:       -11.2021191974     8.9103    30.0000
 SF-CAS              19:       -11.2019700235     8.9144    30.0000
 SF-CAS              20:       -11.2017106106     8.9214    30.0000
 SF-CAS              21:       -11.2017044976     8.9216    30.0000
 SF-CAS              22:       -11.1826710716     9.4395    30.0000
 SF-CAS              23:       -11.1764016285     9.6101    30.0000
 SF-CAS              24:       -11.1723817944     9.7195    30.0000
 SF-CAS              25:       -11.1702547784     9.7774    30.0000
 SF-CAS              26:       -11.1654015916     9.9094    30.0000
 SF-CAS              27:       -11.1639441055     9.9491    30.0000
 SF-CAS              28:       -11.1583919254    10.1002    30.0000
 SF-CAS              29:       -11.1532725521    10.2395    30.0000
 SF-CAS              30:       -11.1495179473    10.3417    30.0000
 SF-CAS              31:       -11.1443609308    10.4820    30.0000
 SF-CAS              32:       -11.1434441183    10.5069    30.0000
 SF-CAS              33:       -11.1418567393    10.5501    30.0000
 SF-CAS              34:       -11.1397547975    10.6073    30.0000
 SF-CAS              35:       -11.1378517201    10.6591    30.0000
 SF-CAS              36:       -11.1306797243    10.8543    30.0000
 SF-CAS              37:       -11.1304248922    10.8612    30.0000
 SF-CAS              38:       -11.1254120955    10.9976    30.0000
 SF-CAS              39:       -11.1241832575    11.0311    30.0000
 SF-CAS              40:       -11.0869385535    12.0446    30.0000
 SF-CAS              41:       -11.0860844103    12.0678    30.0000
 SF-CAS              42:       -11.0856086019    12.0807    30.0000
 SF-CAS              43:       -11.0855317203    12.0828    30.0000
 SF-CAS              44:       -11.0851113702    12.0943    30.0000
 SF-CAS              45:       -11.0849653868    12.0982    30.0000
 SF-CAS              46:       -11.0827334127    12.1590    30.0000
 SF-CAS              47:       -11.0824886167    12.1656    30.0000
 SF-CAS              48:       -11.0816002807    12.1898    30.0000
 SF-CAS              49:       -11.0813533944    12.1965    30.0000
 SF-CAS              50:       -11.0811612495    12.2018    30.0000
 SF-CAS              51:       -11.0808131904    12.2112    30.0000
 SF-CAS              52:       -11.0806485066    12.2157    30.0000
 SF-CAS              53:       -11.0795406613    12.2459    30.0000
 SF-CAS              54:       -11.0787309588    12.2679    30.0000
 SF-CAS              55:       -11.0786838410    12.2692    30.0000
 SF-CAS              56:       -11.0781579511    12.2835    30.0000
 SF-CAS              57:       -11.0762303167    12.3359    30.0000
 SF-CAS              58:       -10.9861931241    14.7860    30.0000
 SF-CAS              59:       -10.9822335736    14.8938    30.0000
 SF-CAS              60:       -10.9791994505    14.9763    30.0000
 SF-CAS              61:       -10.9785210166    14.9948    30.0000
 SF-CAS              62:       -10.9756329305    15.0734    30.0000
 SF-CAS              63:       -10.9714355924    15.1876    30.0000
 SF-CAS              64:       -10.9666616328    15.3175    30.0000
 SF-CAS              65:       -10.9650854536    15.3604    30.0000
 SF-CAS              66:       -10.9576113507    15.5638    30.0000
 SF-CAS              67:       -10.9563655286    15.5977    30.0000
 SF-CAS              68:       -10.9510343300    15.7427    30.0000
 SF-CAS              69:       -10.9492587920    15.7910    30.0000
 SF-CAS              70:       -10.9488010475    15.8035    30.0000
 SF-CAS              71:       -10.9474342224    15.8407    30.0000
 SF-CAS              72:       -10.9471311974    15.8489    30.0000
 SF-CAS              73:       -10.9446036605    15.9177    30.0000
 SF-CAS              74:       -10.9441242357    15.9308    30.0000
 SF-CAS              75:       -10.9420373702    15.9876    30.0000
 SF-CAS              76:       -10.9406345006    16.0257    30.0000
 SF-CAS              77:       -10.9391570648    16.0659    30.0000
 SF-CAS              78:       -10.9385107269    16.0835    30.0000
 SF-CAS              79:       -10.9372380453    16.1182    30.0000
 SF-CAS              80:       -10.9370369560    16.1236    30.0000
 SF-CAS              81:       -10.9346961993    16.1873    30.0000
 SF-CAS              82:       -10.9336052500    16.2170    30.0000
 SF-CAS              83:       -10.9327220030    16.2410    30.0000
 SF-CAS              84:       -10.9301007875    16.3124    30.0000
 SF-CAS              85:       -10.9290386568    16.3413    30.0000
 SF-CAS              86:       -10.9277181001    16.3772    30.0000
 SF-CAS              87:       -10.9269620112    16.3978    30.0000
 SF-CAS              88:       -10.9257075468    16.4319    30.0000
 SF-CAS              89:       -10.9247587842    16.4577    30.0000
 SF-CAS              90:       -10.9236088527    16.4890    30.0000
 SF-CAS              91:       -10.9219691307    16.5336    30.0000
 SF-CAS              92:       -10.9211054652    16.5571    30.0000
 SF-CAS              93:       -10.9197400258    16.5943    30.0000
 SF-CAS              94:       -10.9195795545    16.5987    30.0000
 SF-CAS              95:       -10.9181040012    16.6388    30.0000
 SF-CAS              96:       -10.9169948003    16.6690    30.0000
 SF-CAS              97:       -10.9161904584    16.6909    30.0000
 SF-CAS              98:       -10.9157946940    16.7017    30.0000
 SF-CAS              99:       -10.9143342586    16.7414    30.0000
 SF-CAS             100:       -10.9128721108    16.7812    30.0000
 SF-CAS             101:       -10.9114772995    16.8191    30.0000
 SF-CAS             102:       -10.9108395930    16.8365    30.0000
 SF-CAS             103:       -10.9104520647    16.8470    30.0000
 SF-CAS             104:       -10.9082266887    16.9076    30.0000
 SF-CAS             105:       -10.9080306402    16.9129    30.0000
 SF-CAS             106:       -10.9067836982    16.9469    30.0000
 SF-CAS             107:       -10.9063179064    16.9595    30.0000
 SF-CAS             108:       -10.9041834538    17.0176    30.0000
 SF-CAS             109:       -10.9033593911    17.0400    30.0000
 SF-CAS             110:       -10.9029360876    17.0516    30.0000
 SF-CAS             111:       -10.9016374698    17.0869    30.0000
 SF-CAS             112:       -10.8989519203    17.1600    30.0000
 SF-CAS             113:       -10.8968524709    17.2171    30.0000
 SF-CAS             114:       -10.8957110205    17.2482    30.0000
 SF-CAS             115:       -10.8932488803    17.3152    30.0000
 SF-CAS             116:       -10.8907761692    17.3825    30.0000
 SF-CAS             117:       -10.8879254527    17.4600    30.0000
 SF-CAS             118:       -10.8856886368    17.5209    30.0000
 SF-CAS             119:       -10.8853316246    17.5306    30.0000
 SF-CAS             120:       -10.8844263702    17.5552    30.0000
 SF-CAS             121:       -10.8838536650    17.5708    30.0000
 SF-CAS             122:       -10.8824380219    17.6094    30.0000
 SF-CAS             123:       -10.8813618062    17.6386    30.0000
 SF-CAS             124:       -10.8811004577    17.6457    30.0000
 SF-CAS             125:       -10.8786304762    17.7130    30.0000
 SF-CAS             126:       -10.8753488110    17.8023    30.0000
 SF-CAS             127:       -10.7143099753    22.1844    30.0000
 SF-CAS             128:       -10.7079516710    22.3574    30.0000
 SF-CAS             129:       -10.7024775003    22.5064    30.0000
 SF-CAS             130:       -10.6993515503    22.5914    30.0000
 SF-CAS             131:       -10.6990250536    22.6003    30.0000
 SF-CAS             132:       -10.6941175071    22.7339    30.0000
 SF-CAS             133:       -10.6855993004    22.9657    30.0000
 SF-CAS             134:       -10.6841138831    23.0061    30.0000
 SF-CAS             135:       -10.6784665004    23.1598    30.0000
 SF-CAS             136:       -10.6778499719    23.1765    30.0000
 SF-CAS             137:       -10.6749697059    23.2549    30.0000
 SF-CAS             138:       -10.6718861906    23.3388    30.0000
 SF-CAS             139:       -10.6717048641    23.3437    30.0000
 SF-CAS             140:       -10.6693070270    23.4090    30.0000
 SF-CAS             141:       -10.6650174448    23.5257    30.0000
 SF-CAS             142:       -10.6622283055    23.6016    30.0000
 SF-CAS             143:       -10.6590008047    23.6894    30.0000
 SF-CAS             144:       -10.6494032187    23.9506    30.0000
 ===================================================================

              Active Space Coefficients > 0.20
 -------------------------------------------------------------------
 State  1                       Configuration         Coeff.   <S^2>
 -------------------------------------------------------------------
                  11111111111_ | ___________1       0.655215  31.000
                  11111111_111 | ________1___       0.291173  31.000
                  111111_11111 | ______1_____       0.215243  31.000
                  111_11111111 | ___1________      -0.213808  31.000
                  11_111111111 | __1_________      -0.321305  31.000
                  _11111111111 | 1___________       0.249677  31.000
 -------------------------------------------------------------------
 State  2                       Configuration         Coeff.   <S^2>
 -------------------------------------------------------------------
                  1111111111_1 | __________1_       0.643380  31.000
                  1111111_1111 | _______1____       0.314055  31.000
                  11111_111111 | _____1______       0.317543  31.000
                  1111_1111111 | ____1_______      -0.280919  31.000
                  11_111111111 | __1_________       0.251267  31.000
 -------------------------------------------------------------------
 State  3                       Configuration         Coeff.   <S^2>
 -------------------------------------------------------------------
                  11111_111111 | _____1______       0.513721  31.000
                  1111_1111111 | ____1_______       0.405127  31.000
                  11_111111111 | __1_________       0.529576  31.000
 -------------------------------------------------------------------
 State  4                       Configuration         Coeff.   <S^2>
 -------------------------------------------------------------------
                  11111111111_ | ___________1      -0.362133  31.000
                  11111111_111 | ________1___       0.310279  31.000
                  111111_11111 | ______1_____      -0.228856  31.000
                  11111_111111 | _____1______       0.219771  31.000
                  1111_1111111 | ____1_______       0.238747  31.000
                  111_11111111 | ___1________      -0.316339  31.000
                  11_111111111 | __1_________      -0.411125  31.000
                  _11111111111 | 1___________      -0.369240  31.000
 -------------------------------------------------------------------
 State  5                       Configuration         Coeff.   <S^2>
 -------------------------------------------------------------------
                  1111111111_1 | __________1_      -0.355191  31.000
                  111111111_11 | _________1__      -0.255633  31.000
                  1111111_1111 | _______1____      -0.242865  31.000
                  11111_111111 | _____1______       0.330433  31.000
                  1111_1111111 | ____1_______      -0.522744  31.000
                  111_11111111 | ___1________      -0.277514  31.000
                  _11111111111 | 1___________       0.236962  31.000
 -------------------------------------------------------------------
 State  6                       Configuration         Coeff.   <S^2>
 -------------------------------------------------------------------
                  111111111_11 | _________1__       0.651723  31.000
                  1111111_1111 | _______1____      -0.235565  31.000
                  11111_111111 | _____1______       0.230071  31.000
                  111_11111111 | ___1________      -0.317134  31.000
                  1_1111111111 | _1__________      -0.431254  31.000
 -------------------------------------------------------------------
 State  7                       Configuration         Coeff.   <S^2>
 -------------------------------------------------------------------
                  11111111_111 | ________1___      -0.654609  31.000
                  111_11111111 | ___1________      -0.548240  31.000
 -------------------------------------------------------------------
 State  8                       Configuration         Coeff.   <S^2>
 -------------------------------------------------------------------
                  111111111_11 | _________1__      -0.207474  31.000
                  1111111_1111 | _______1____       0.614137  31.000
                  1_1111111111 | _1__________      -0.590002  31.000
 -------------------------------------------------------------------
 State  9                       Configuration         Coeff.   <S^2>
 -------------------------------------------------------------------
                  111111_11111 | ______1_____      -0.698892  31.000
                  _11111111111 | 1___________       0.566797  31.000
 -------------------------------------------------------------------
 State  10                      Configuration         Coeff.   <S^2>
 -------------------------------------------------------------------
                  11111111111_ | ___________1       0.335821  31.000
                  11111111_111 | ________1___       0.346282  31.000
                  111111_11111 | ______1_____      -0.359103  31.000
                  11111_111111 | _____1______      -0.353783  31.000
                  1111_1111111 | ____1_______      -0.355489  31.000
                  111_11111111 | ___1________      -0.348651  31.000
                  11_111111111 | __1_________       0.362965  31.000
                  _11111111111 | 1___________      -0.359143  31.000
 -------------------------------------------------------------------
 State  11                      Configuration         Coeff.   <S^2>
 -------------------------------------------------------------------
                  11111111111_ | ___________1      -0.203887  31.000
                  1111111111_1 | __________1_      -0.398205  31.000
                  111111111_11 | _________1__       0.409402  31.000
                  11111111_111 | ________1___       0.205259  31.000
                  1111111_1111 | _______1____       0.412022  31.000
                  111111_11111 | ______1_____       0.206599  31.000
                  1111_1111111 | ____1_______       0.200168  31.000
                  111_11111111 | ___1________      -0.205371  31.000
                  11_111111111 | __1_________       0.205304  31.000
                  1_1111111111 | _1__________       0.411520  31.000
                  _11111111111 | 1___________       0.206691  31.000
 -------------------------------------------------------------------
 State  12                      Configuration         Coeff.   <S^2>
 -------------------------------------------------------------------
                  11111111111_ | ___________1      -0.288675  31.000
                  1111111111_1 | __________1_       0.288675  31.000
                  111111111_11 | _________1__      -0.288675  31.000
                  11111111_111 | ________1___       0.288675  31.000
                  1111111_1111 | _______1____      -0.288675  31.000
                  111111_11111 | ______1_____       0.288675  31.000
                  11111_111111 | _____1______      -0.288675  31.000
                  1111_1111111 | ____1_______       0.288675  31.000
                  111_11111111 | ___1________      -0.288675  31.000
                  11_111111111 | __1_________       0.288675  31.000
                  1_1111111111 | _1__________      -0.288675  31.000
                  _11111111111 | 1___________       0.288675  31.000
 -------------------------------------------------------------------
 State  13                      Configuration         Coeff.   <S^2>
 -------------------------------------------------------------------
                  11111111111_ | 1___________      -0.297050  30.000
                  11111111111_ | ___1________       0.248123  30.000
                  11111111111_ | ____1_______      -0.296204  30.000
                  11111111111_ | _____1______      -0.230356  30.000
                  11111111111_ | ______1_____      -0.296899  30.000
                  11111111111_ | ________1___       0.249195  30.000
                  11_111111111 | ___1________       0.209404  30.000
                  11_111111111 | _____1______      -0.252928  30.000
 -------------------------------------------------------------------
 State  14                      Configuration         Coeff.   <S^2>
 -------------------------------------------------------------------
                  1111111111_1 | _1__________      -0.237800  30.000
                  1111111111_1 | _______1____       0.240593  30.000
                  1111111111_1 | _________1__       0.249265  30.000
                  11111_111111 | ___1________      -0.221466  30.000
                  11111_111111 | ________1___      -0.219423  30.000
                  1111_1111111 | 1___________      -0.237337  30.000
                  1111_1111111 | ______1_____      -0.262100  30.000
                  1111_1111111 | ___________1       0.291864  30.000
 -------------------------------------------------------------------
 State  15                      Configuration         Coeff.   <S^2>
 -------------------------------------------------------------------
                  11111111111_ | ____1_______      -0.296728  30.000
                  11111111111_ | ______1_____      -0.223848  30.000
                  11_111111111 | __1_________       0.204622  31.000
                  11_111111111 | ___1________      -0.315360  30.000
                  11_111111111 | _____1______       0.300014  30.000
                  11_111111111 | ________1___      -0.310969  30.000
                  _11111111111 | ____1_______       0.202667  30.000
                  _11111111111 | ______1_____       0.266826  30.000
 -------------------------------------------------------------------
 State  16                      Configuration         Coeff.   <S^2>
 -------------------------------------------------------------------
                  111111_11111 | 1___________       0.314139  30.000
                  111111_11111 | ____1_______       0.410352  30.000
                  111111_11111 | ______1_____      -0.259333  31.000
                  111111_11111 | ___________1      -0.440186  30.000
                  _11111111111 | 1___________       0.205005  31.000
                  _11111111111 | ____1_______      -0.360303  30.000
                  _11111111111 | ___________1       0.368317  30.000
 -------------------------------------------------------------------
 State  17                      Configuration         Coeff.   <S^2>
 -------------------------------------------------------------------
                  1111111111_1 | _________1__       0.207216  30.000
                  11111111_111 | ___1________       0.215961  30.000
                  11111_111111 | __1_________      -0.241512  30.000
                  1111_1111111 | 1___________       0.286783  30.000
                  1111_1111111 | ______1_____       0.297561  30.000
                  1111_1111111 | ___________1      -0.291062  30.000
 -------------------------------------------------------------------
 State  18                      Configuration         Coeff.   <S^2>
 -------------------------------------------------------------------
                  1111111111_1 | _1__________      -0.313380  30.000
                  1111111111_1 | _______1____       0.231069  30.000
                  1111111111_1 | _________1__       0.291848  30.000
                  11111111_111 | __1_________      -0.219166  30.000
                  11111111_111 | ___1________      -0.227143  30.000
                  1111111_1111 | _1__________       0.247962  30.000
                  1111111_1111 | _________1__      -0.267831  30.000
                  11111_111111 | __1_________       0.293059  30.000
                  11111_111111 | ___1________       0.293612  30.000
                  11111_111111 | ________1___       0.246622  30.000
 -------------------------------------------------------------------
 State  19                      Configuration         Coeff.   <S^2>
 -------------------------------------------------------------------
                  1111111111_1 | _______1____       0.228757  30.000
                  111111111_11 | _1__________       0.440936  30.000
                  111111111_11 | _______1____      -0.364439  30.000
                  111111111_11 | _________1__       0.273589  31.000
                  111111111_11 | __________1_       0.420947  30.000
                  1111111_1111 | _1__________      -0.289475  30.000
                  1111111_1111 | __________1_      -0.327616  30.000
 -------------------------------------------------------------------
 State  20                      Configuration         Coeff.   <S^2>
 -------------------------------------------------------------------
                  11111111_111 | __1_________      -0.295831  30.000
                  11111111_111 | _____1______       0.301476  30.000
                  1111111_1111 | _________1__       0.201365  30.000
                  111_11111111 | __1_________      -0.308391  30.000
                  111_11111111 | _____1______       0.317025  30.000
                  111_11111111 | ________1___      -0.222317  30.000
                  1_1111111111 | _______1____       0.250391  30.000
                  1_1111111111 | _________1__       0.262233  30.000
                  1_1111111111 | __________1_      -0.304722  30.000
 -------------------------------------------------------------------
 State  21                      Configuration         Coeff.   <S^2>
 -------------------------------------------------------------------
                  11111111_111 | _____1______       0.232296  30.000
                  1111111_1111 | _________1__      -0.205939  30.000
                  1111111_1111 | __________1_       0.222438  30.000
                  111_11111111 | __1_________      -0.297272  30.000
                  111_11111111 | _____1______       0.271276  30.000
                  111_11111111 | ________1___      -0.239804  30.000
                  1_1111111111 | _1__________      -0.215157  31.000
                  1_1111111111 | _______1____      -0.298398  30.000
                  1_1111111111 | _________1__      -0.334775  30.000
                  1_1111111111 | __________1_       0.332658  30.000
 -------------------------------------------------------------------
 State  22                      Configuration         Coeff.   <S^2>
 -------------------------------------------------------------------
                  11111111111_ | __1_________       0.319786  30.000
                  11111111111_ | ___1________       0.397741  30.000
                  11111111111_ | _____1______      -0.375605  30.000
                  11111111111_ | ________1___       0.404228  30.000
 -------------------------------------------------------------------
 State  23                      Configuration         Coeff.   <S^2>
 -------------------------------------------------------------------
                  1111111111_1 | 1___________       0.264543  30.000
                  1111111111_1 | ____1_______       0.345020  30.000
                  1111111111_1 | ______1_____       0.279704  30.000
                  1111111111_1 | ___________1      -0.351471  30.000
                  11111_111111 | ____1_______      -0.212681  30.000
                  11111_111111 | ___________1       0.256808  30.000
 -------------------------------------------------------------------
 State  24                      Configuration         Coeff.   <S^2>
 -------------------------------------------------------------------
                  11111111_111 | 1___________       0.321825  30.000
                  11111111_111 | ____1_______       0.329459  30.000
                  11111111_111 | ______1_____       0.335640  30.000
                  11111111_111 | ___________1      -0.466348  30.000
                  111_11111111 | 1___________       0.287090  30.000
                  111_11111111 | ____1_______       0.281684  30.000
                  111_11111111 | ______1_____       0.275695  30.000
                  111_11111111 | ___________1      -0.393177  30.000
 -------------------------------------------------------------------
 State  25                      Configuration         Coeff.   <S^2>
 -------------------------------------------------------------------
                  1111111111_1 | _____1______      -0.218897  30.000
                  11111_111111 | _1__________       0.240375  30.000
                  11111_111111 | _______1____      -0.230294  30.000
                  11111_111111 | _________1__      -0.277935  30.000
                  11111_111111 | __________1_       0.319181  30.000
                  1111_1111111 | __________1_      -0.208332  30.000
 -------------------------------------------------------------------
 State  26                      Configuration         Coeff.   <S^2>
 -------------------------------------------------------------------
                  11111111111_ | _1__________      -0.205911  30.000
                  11111111111_ | __________1_      -0.250186  30.000
                  11111_111111 | _________1__      -0.232086  30.000
                  11111_111111 | __________1_       0.260094  30.000
                  1111_1111111 | _1__________       0.306695  30.000
                  1111_1111111 | _______1____      -0.277159  30.000
                  1111_1111111 | _________1__      -0.271939  30.000
                  1111_1111111 | __________1_       0.376472  30.000
 -------------------------------------------------------------------
 State  27                      Configuration         Coeff.   <S^2>
 -------------------------------------------------------------------
                  1111111111_1 | __1_________       0.237702  30.000
                  1111111111_1 | ___1________       0.249015  30.000
                  1111111111_1 | _____1______      -0.319503  30.000
                  1111111111_1 | ________1___       0.257068  30.000
                  111111111_11 | _____1______       0.205453  30.000
                  11111_111111 | ___________1      -0.200614  30.000
 -------------------------------------------------------------------
 State  28                      Configuration         Coeff.   <S^2>
 -------------------------------------------------------------------
                  1111111111_1 | ____1_______      -0.251614  30.000
                  1111111111_1 | ______1_____      -0.200295  30.000
                  1111111111_1 | ___________1       0.200355  30.000
                  11111_111111 | ___________1       0.242879  30.000
                  111_11111111 | ___________1       0.240260  30.000
 -------------------------------------------------------------------
 State  29                      Configuration         Coeff.   <S^2>
 -------------------------------------------------------------------
                  11111111111_ | _1__________       0.236850  30.000
                  11111111111_ | _______1____      -0.223780  30.000
                  11111111111_ | _________1__      -0.231201  30.000
                  11111111111_ | __________1_       0.293722  30.000
                  111111_11111 | _1__________      -0.215146  30.000
                  111111_11111 | _______1____       0.206178  30.000
                  111111_11111 | _________1__       0.204087  30.000
                  111111_11111 | __________1_      -0.258334  30.000
                  1111_1111111 | _1__________       0.204576  30.000
                  1111_1111111 | __________1_       0.246699  30.000
 -------------------------------------------------------------------
 State  30                      Configuration         Coeff.   <S^2>
 -------------------------------------------------------------------
                  111111111_11 | __1_________       0.250935  30.000
                  111111111_11 | ___1________       0.271730  30.000
                  111111111_11 | _____1______      -0.344190  30.000
                  111111111_11 | ________1___       0.271917  30.000
                  111111111_11 | ___________1      -0.228621  30.000
                  1_1111111111 | ___1________       0.224685  30.000
                  1_1111111111 | _____1______      -0.260933  30.000
                  1_1111111111 | ________1___       0.222697  30.000
                  1_1111111111 | ___________1      -0.209460  30.000
 -------------------------------------------------------------------
 State  31                      Configuration         Coeff.   <S^2>
 -------------------------------------------------------------------
                  111111_11111 | __1_________      -0.308779  30.000
                  111111_11111 | ___1________      -0.358574  30.000
                  111111_11111 | _____1______       0.350839  30.000
                  111111_11111 | ________1___      -0.378501  30.000
                  _11111111111 | __1_________       0.268186  30.000
                  _11111111111 | ___1________       0.325192  30.000
                  _11111111111 | _____1______      -0.306086  30.000
                  _11111111111 | ________1___       0.316892  30.000
 -------------------------------------------------------------------
 State  32                      Configuration         Coeff.   <S^2>
 -------------------------------------------------------------------
                  1111111_1111 | 1___________      -0.235253  30.000
                  1111111_1111 | ____1_______      -0.283320  30.000
                  1111111_1111 | _____1______       0.217114  30.000
                  1111111_1111 | ______1_____      -0.244696  30.000
                  1111111_1111 | ________1___      -0.200340  30.000
                  1111111_1111 | ___________1       0.300251  30.000
                  1_1111111111 | 1___________      -0.260366  30.000
                  1_1111111111 | ____1_______      -0.322406  30.000
                  1_1111111111 | ______1_____      -0.262047  30.000
                  1_1111111111 | ___________1       0.301939  30.000
 -------------------------------------------------------------------
 State  33                      Configuration         Coeff.   <S^2>
 -------------------------------------------------------------------
                  11111_111111 | ___________1       0.212663  30.000
                  11_111111111 | 1___________       0.314009  30.000
                  11_111111111 | ____1_______       0.320421  30.000
                  11_111111111 | ______1_____       0.314767  30.000
                  11_111111111 | ___________1      -0.374819  30.000
 -------------------------------------------------------------------
 State  34                      Configuration         Coeff.   <S^2>
 -------------------------------------------------------------------
                  1111111111_1 | _____1______       0.206653  30.000
                  1111_1111111 | __1_________      -0.248042  30.000
                  1111_1111111 | ___1________      -0.295713  30.000
                  1111_1111111 | _____1______       0.285441  30.000
                  1111_1111111 | ________1___      -0.293665  30.000
 -------------------------------------------------------------------
 State  35                      Configuration         Coeff.   <S^2>
 -------------------------------------------------------------------
                  11111111_111 | _1__________      -0.315009  30.000
                  11111111_111 | _______1____       0.311291  30.000
                  11111111_111 | _________1__       0.340251  30.000
                  11111111_111 | __________1_      -0.376165  30.000
                  111_11111111 | _1__________      -0.325424  30.000
                  111_11111111 | _______1____       0.310606  30.000
                  111_11111111 | _________1__       0.346050  30.000
                  111_11111111 | __________1_      -0.372200  30.000
 -------------------------------------------------------------------
 State  36                      Configuration         Coeff.   <S^2>
 -------------------------------------------------------------------
                  111111_11111 | _1__________       0.324123  30.000
                  111111_11111 | _______1____      -0.314166  30.000
                  111111_11111 | _________1__      -0.306206  30.000
                  111111_11111 | __________1_       0.368892  30.000
                  _11111111111 | _1__________      -0.338335  30.000
                  _11111111111 | _______1____       0.317881  30.000
                  _11111111111 | _________1__       0.315748  30.000
                  _11111111111 | __________1_      -0.368236  30.000
 -------------------------------------------------------------------
 State  37                      Configuration         Coeff.   <S^2>
 -------------------------------------------------------------------
                  111111111_11 | 1___________       0.282038  30.000
                  111111111_11 | ____1_______       0.326611  30.000
                  111111111_11 | ______1_____       0.287058  30.000
                  111111111_11 | ___________1      -0.294221  30.000
                  1_1111111111 | __1_________      -0.225165  30.000
                  1_1111111111 | ___1________      -0.226295  30.000
                  1_1111111111 | _____1______       0.264663  30.000
                  1_1111111111 | ________1___      -0.221801  30.000
 -------------------------------------------------------------------
 State  38                      Configuration         Coeff.   <S^2>
 -------------------------------------------------------------------
                  1111111_1111 | 1___________      -0.238237  30.000
                  1111111_1111 | __1_________       0.299644  30.000
                  1111111_1111 | ___1________       0.290525  30.000
                  1111111_1111 | ____1_______      -0.285000  30.000
                  1111111_1111 | _____1______      -0.345925  30.000
                  1111111_1111 | ______1_____      -0.248112  30.000
                  1111111_1111 | ________1___       0.294358  30.000
                  1111111_1111 | ___________1       0.202874  30.000
                  1_1111111111 | __1_________       0.209824  30.000
                  1_1111111111 | ___1________       0.217138  30.000
                  1_1111111111 | _____1______      -0.246688  30.000
                  1_1111111111 | ________1___       0.213193  30.000
 -------------------------------------------------------------------
 State  39                      Configuration         Coeff.   <S^2>
 -------------------------------------------------------------------
                  11111111111_ | __________1_      -0.247842  30.000
                  11_111111111 | _1__________       0.324765  30.000
                  11_111111111 | _______1____      -0.319525  30.000
                  11_111111111 | _________1__      -0.360716  30.000
                  11_111111111 | __________1_       0.367166  30.000
 -------------------------------------------------------------------
 State  40                      Configuration         Coeff.   <S^2>
 -------------------------------------------------------------------
                  11111111_111 | __1_________       0.225683  30.000
                  11111111_111 | ___1________      -0.391358  30.000
                  11111111_111 | _____1______      -0.215714  30.000
                  11111_111111 | __1_________      -0.398361  30.000
                  11111_111111 | ___1________       0.216274  30.000
                  11111_111111 | ________1___       0.235408  30.000
                  111_11111111 | __1_________      -0.227663  30.000
                  111_11111111 | ________1___       0.352165  30.000
                  11_111111111 | ___1________       0.218154  30.000
                  11_111111111 | _____1______       0.332230  30.000
 -------------------------------------------------------------------
 State  41                      Configuration         Coeff.   <S^2>
 -------------------------------------------------------------------
                  1111111111_1 | _1__________      -0.299621  30.000
                  1111111111_1 | _________1__      -0.439639  30.000
                  111111111_11 | _______1____       0.218465  30.000
                  111111111_11 | __________1_       0.310331  30.000
                  1111111_1111 | _1__________       0.386785  30.000
                  1111111_1111 | _________1__       0.281954  30.000
                  1_1111111111 | _______1____       0.358867  30.000
                  1_1111111111 | __________1_       0.204159  30.000
 -------------------------------------------------------------------
 State  42                      Configuration         Coeff.   <S^2>
 -------------------------------------------------------------------
                  11111111111_ | ____1_______       0.369167  30.000
                  11111111111_ | ______1_____      -0.243274  30.000
                  1111111111_1 | _______1____      -0.328041  30.000
                  111111111_11 | _1__________       0.298608  30.000
                  1111111_1111 | __________1_       0.222431  30.000
                  111111_11111 | 1___________       0.241836  30.000
                  1_1111111111 | _________1__       0.259752  30.000
                  _11111111111 | ____1_______      -0.227215  30.000
                  _11111111111 | ______1_____       0.260690  30.000
 -------------------------------------------------------------------
 State  43                      Configuration         Coeff.   <S^2>
 -------------------------------------------------------------------
                  11111111_111 | __1_________      -0.322648  30.000
                  11111111_111 | _____1______      -0.289064  30.000
                  11111_111111 | ___1________      -0.385464  30.000
                  11111_111111 | ________1___       0.325366  30.000
                  111_11111111 | __1_________      -0.263467  30.000
                  111_11111111 | _____1______      -0.279255  30.000
                  11_111111111 | ___1________       0.343863  30.000
                  11_111111111 | ________1___      -0.334278  30.000
 -------------------------------------------------------------------
 State  44                      Configuration         Coeff.   <S^2>
 -------------------------------------------------------------------
                  11111111111_ | 1___________       0.212397  30.000
                  11111111111_ | ____1_______      -0.325323  30.000
                  1111111111_1 | _1__________      -0.337073  30.000
                  1111111111_1 | _______1____      -0.324107  30.000
                  111111111_11 | _1__________       0.280104  30.000
                  111111111_11 | _______1____       0.316814  30.000
                  1111111_1111 | _________1__       0.248508  30.000
                  111111_11111 | 1___________      -0.229312  30.000
[...]
   697     3228.38306703    31163.35770992        6.00000000      cm-1
   698     3229.94322965    31164.91787254       12.00000000      cm-1
   699     3232.14204803    31167.11669092        6.00000000      cm-1
   700     3233.58110361    31168.55574650       12.00000000      cm-1
   701     3234.35848525    31169.33312814       20.00000000      cm-1
   702     3236.97276290    31171.94740579       -0.00000000      cm-1
   703     3239.11702733    31174.09167022       12.00000000      cm-1
   704     3243.10631330    31178.08095619        6.00000000      cm-1
   705     3243.92546156    31178.90010445        2.00000000      cm-1
   706     3247.76847736    31182.74312025        6.00000000      cm-1
   707     3251.48924170    31186.46388459       12.00000000      cm-1
   708     3255.38778670    31190.36242959        6.00000000      cm-1
   709     3258.54897181    31193.52361470       20.00000000      cm-1
   710     3263.34766181    31198.32230470        6.00000000      cm-1
   711     3266.66705397    31201.64169686        6.00000000      cm-1
   712     3268.47315433    31203.44779722       12.00000000      cm-1
   713     3268.66197659    31203.63661948        2.00000000      cm-1
   714     3270.56306681    31205.53770970       12.00000000      cm-1
   715     3275.45855863    31210.43320152        6.00000000      cm-1
   716     3277.24141912    31212.21606201       12.00000000      cm-1
   717     3281.28573699    31216.26037988       12.00000000      cm-1
   718     3283.40191597    31218.37655886       20.00000000      cm-1
   719     3284.94529736    31219.91994025       12.00000000      cm-1
   720     3287.90905914    31222.88370203       -0.00000000      cm-1
   721     3287.98113049    31222.95577338        6.00000000      cm-1
   722     3291.21489421    31226.18953710        2.00000000      cm-1
   723     3291.70647358    31226.68111647       12.00000000      cm-1
   724     3293.54441494    31228.51905783        6.00000000      cm-1
   725     3295.50222643    31230.47686932       12.00000000      cm-1
   726     3304.47336473    31239.44800762        6.00000000      cm-1
   727     3305.55761880    31240.53226169       20.00000000      cm-1
   728     3306.25586246    31241.23050535        2.00000000      cm-1
   729     3308.63212081    31243.60676370        2.00000000      cm-1
   730     3312.76196667    31247.73660956       12.00000000      cm-1
   731     3313.05900491    31248.03364780        6.00000000      cm-1
   732     3314.01815349    31248.99279638       -0.00000000      cm-1
   733     3315.04843515    31250.02307804        6.00000000      cm-1
   734     3315.06800797    31250.04265086       12.00000000      cm-1
   735     3315.27121706    31250.24585995       20.00000000      cm-1
   736     3330.98974791    31265.96439080        6.00000000      cm-1
   737     3335.38592634    31270.36056923       12.00000000      cm-1
   738     3337.01356068    31271.98820357       20.00000000      cm-1
   739     3351.52176963    31286.49641252       20.00000000      cm-1
   740     3351.64933446    31286.62397735       12.00000000      cm-1
   741     3354.10077187    31289.07541476        6.00000000      cm-1
   742     3355.96385891    31290.93850180       12.00000000      cm-1
   743     3359.97708801    31294.95173090       12.00000000      cm-1
   744     3361.09542668    31296.07006957       20.00000000      cm-1
   745     3362.34634640    31297.32098929       20.00000000      cm-1
   746     3365.18253617    31300.15717906       12.00000000      cm-1
   747     3367.22800708    31302.20264997        6.00000000      cm-1
   748     3371.71423692    31306.68887981       20.00000000      cm-1
   749     3386.87862889    31321.85327178       20.00000000      cm-1
   750     3393.65023349    31328.62487638       20.00000000      cm-1
   751     3397.97145781    31332.94610070        6.00000000      cm-1
   752     3398.66314304    31333.63778593       12.00000000      cm-1
   753     3404.23089778    31339.20554067       20.00000000      cm-1
   754     3423.17667778    31358.15132067       20.00000000      cm-1
   755     3427.55264240    31362.52728529       20.00000000      cm-1
   756     3458.57671118    31393.55135407       20.00000000      cm-1
   757     3461.58026681    31396.55490970       20.00000000      cm-1
   758     8765.43342094    36700.40806383        0.00000000      cm-1
   759     8828.54219306    36763.51683595        2.00000000      cm-1
   760     8904.68463460    36839.65927749        0.00000000      cm-1
   761     8953.09693554    36888.07157843        6.00000000      cm-1
   762     8967.93975133    36902.91439422        2.00000000      cm-1
   763     9008.17603965    36943.15068254        0.00000000      cm-1
   764     9008.62161179    36943.59625468       -0.00000000      cm-1
   765     9031.36486674    36966.33950963        2.00000000      cm-1
   766     9032.80246856    36967.77711145        2.00000000      cm-1
   767     9076.69187698    37011.66651987        6.00000000      cm-1
   768     9081.68782213    37016.66246502        6.00000000      cm-1
   769     9092.78848789    37027.76313078        6.00000000      cm-1
   770     9135.97674600    37070.95138889       12.00000000      cm-1
   771     9144.03511150    37079.00975439       12.00000000      cm-1
   772     9154.37399370    37089.34863659       12.00000000      cm-1
   773     9159.27117194    37094.24581483        0.00000000      cm-1
   774     9183.45649967    37118.43114256        2.00000000      cm-1
   775     9209.42004079    37144.39468368        0.00000000      cm-1
   776     9231.56167315    37166.53631604        6.00000000      cm-1
   777     9232.67306351    37167.64770640       20.00000000      cm-1
   778     9232.92752091    37167.90216380        2.00000000      cm-1
   779     9250.11079997    37185.08544286       20.00000000      cm-1
   780     9276.11223801    37211.08688090       12.00000000      cm-1
   781     9279.69040040    37214.66504329        6.00000000      cm-1
   782     9303.06973141    37238.04437430       12.00000000      cm-1
   783     9349.21775592    37284.19239881       12.00000000      cm-1
   784     9372.95458443    37307.92922732       20.00000000      cm-1
   785     9397.23860943    37332.21325232       20.00000000      cm-1
   786     9440.80468768    37375.77933057       20.00000000      cm-1
   787     9513.68667637    37448.66131926       20.00000000      cm-1
   788    14791.88168683    42726.85632972        2.00000000      cm-1
   789    14835.76843421    42770.74307710        6.00000000      cm-1
   790    14882.55168505    42817.52632794        2.00000000      cm-1
   791    14897.13905649    42832.11369938       12.00000000      cm-1
   792    14936.30918168    42871.28382457        0.00000000      cm-1
   793    14945.75573778    42880.73038067        2.00000000      cm-1
   794    14947.54566497    42882.52030786        6.00000000      cm-1
   795    14953.72021945    42888.69486234        0.00000000      cm-1
   796    14963.95816372    42898.93280661        2.00000000      cm-1
   797    14972.10756868    42907.08221157       -0.00000000      cm-1
   798    14980.86879124    42915.84343413        2.00000000      cm-1
   799    14990.21534007    42925.18998296        2.00000000      cm-1
   800    14996.18635963    42931.16100252        6.00000000      cm-1
   801    14998.18475749    42933.15940038        2.00000000      cm-1
   802    15004.19734214    42939.17198503        2.00000000      cm-1
   803    15023.06047326    42958.03511615        2.00000000      cm-1
   804    15035.99598889    42970.97063178        6.00000000      cm-1
   805    15041.95707550    42976.93171839        2.00000000      cm-1
   806    15043.00340080    42977.97804369        6.00000000      cm-1
   807    15046.48432240    42981.45896529       12.00000000      cm-1
   808    15047.98567183    42982.96031472        2.00000000      cm-1
   809    15053.46251861    42988.43716150        6.00000000      cm-1
   810    15058.90472443    42993.87936732        2.00000000      cm-1
   811    15067.86695508    43002.84159797       12.00000000      cm-1
   812    15074.51458858    43009.48923147       -0.00000000      cm-1
   813    15081.69249128    43016.66713417       12.00000000      cm-1
   814    15083.93665607    43018.91129896        6.00000000      cm-1
   815    15101.91629299    43036.89093588        2.00000000      cm-1
   816    15107.76876158    43042.74340447        6.00000000      cm-1
   817    15116.52975045    43051.50439334        6.00000000      cm-1
   818    15123.42160973    43058.39625262       12.00000000      cm-1
   819    15126.35881723    43061.33346012        0.00000000      cm-1
   820    15133.24922133    43068.22386422        2.00000000      cm-1
   821    15142.14649588    43077.12113877        6.00000000      cm-1
   822    15156.82769851    43091.80234140        0.00000000      cm-1
   823    15158.78341016    43093.75805305        2.00000000      cm-1
   824    15162.40274307    43097.37738596       12.00000000      cm-1
   825    15167.88767431    43102.86231720        6.00000000      cm-1
   826    15173.70591785    43108.68056074       20.00000000      cm-1
   827    15174.42331857    43109.39796146        2.00000000      cm-1
   828    15185.61343250    43120.58807539        6.00000000      cm-1
   829    15194.38423863    43129.35888152        6.00000000      cm-1
   830    15210.01704264    43144.99168553        6.00000000      cm-1
   831    15218.01435466    43152.98899755       12.00000000      cm-1
   832    15219.76654795    43154.74119084        6.00000000      cm-1
   833    15224.80208198    43159.77672487       20.00000000      cm-1
   834    15225.62024096    43160.59488385        2.00000000      cm-1
   835    15234.62519512    43169.59983801       -0.00000000      cm-1
   836    15252.25407644    43187.22871933       12.00000000      cm-1
   837    15255.29293412    43190.26757701        6.00000000      cm-1
   838    15257.81437758    43192.78902047       20.00000000      cm-1
   839    15272.36292785    43207.33757074       12.00000000      cm-1
   840    15275.26750663    43210.24214952        2.00000000      cm-1
   841    15278.70812324    43213.68276613        2.00000000      cm-1
   842    15289.34138998    43224.31603287       12.00000000      cm-1
   843    15302.61183548    43237.58647837       12.00000000      cm-1
   844    15307.21876760    43242.19341049       12.00000000      cm-1
   845    15313.06947879    43248.04412168        6.00000000      cm-1
   846    15327.55596023    43262.53060312       12.00000000      cm-1
   847    15332.73694252    43267.71158541        6.00000000      cm-1
   848    15334.35403994    43269.32868283        2.00000000      cm-1
   849    15339.19613975    43274.17078264       30.00000000      cm-1
   850    15348.47921516    43283.45385805       -0.00000000      cm-1
   851    15360.78771210    43295.76235499        2.00000000      cm-1
   852    15365.29073231    43300.26537520       20.00000000      cm-1
   853    15366.94637080    43301.92101369        2.00000000      cm-1
   854    15370.51143995    43305.48608284       12.00000000      cm-1
   855    15379.87011969    43314.84476258       12.00000000      cm-1
   856    15388.57830550    43323.55294839        6.00000000      cm-1
   857    15390.43959786    43325.41424075       20.00000000      cm-1
   858    15398.32020214    43333.29484503        6.00000000      cm-1
   859    15401.34506336    43336.31970625       12.00000000      cm-1
   860    15403.97683220    43338.95147509       -0.00000000      cm-1
   861    15418.13392417    43353.10856706       12.00000000      cm-1
   862    15423.87746520    43358.85210809       12.00000000      cm-1
   863    15426.55586788    43361.53051077        6.00000000      cm-1
   864    15426.75381409    43361.72845698        2.00000000      cm-1
   865    15432.37158009    43367.34622298        2.00000000      cm-1
   866    15433.35157771    43368.32622060       20.00000000      cm-1
   867    15435.95582426    43370.93046715        6.00000000      cm-1
   868    15471.08644927    43406.06109216       20.00000000      cm-1
   869    15471.11420657    43406.08884946       12.00000000      cm-1
   870    15473.56331245    43408.53795534        6.00000000      cm-1
   871    15474.68351777    43409.65816066        2.00000000      cm-1
   872    15482.83940934    43417.81405223       12.00000000      cm-1
   873    15486.24889810    43421.22354099        6.00000000      cm-1
   874    15500.59440480    43435.56904769       20.00000000      cm-1
   875    15507.64199688    43442.61663977       30.00000000      cm-1
   876    15510.72287617    43445.69751906       20.00000000      cm-1
   877    15514.17395191    43449.14859480        2.00000000      cm-1
   878    15518.93595082    43453.91059371        6.00000000      cm-1
   879    15520.67148706    43455.64612995       12.00000000      cm-1
   880    15522.15262559    43457.12726848        2.00000000      cm-1
   881    15538.87320806    43473.84785095       20.00000000      cm-1
   882    15541.56862136    43476.54326425       12.00000000      cm-1
   883    15550.26867617    43485.24331906        6.00000000      cm-1
   884    15552.05167572    43487.02631861       20.00000000      cm-1
   885    15553.44228063    43488.41692352        6.00000000      cm-1
   886    15560.79189511    43495.76653800       12.00000000      cm-1
   887    15563.19023734    43498.16488023       20.00000000      cm-1
   888    15571.45540303    43506.43004592       12.00000000      cm-1
   889    15584.22881314    43519.20345603       12.00000000      cm-1
   890    15595.89557229    43530.87021518       20.00000000      cm-1
   891    15608.51988483    43543.49452772       20.00000000      cm-1
   892    15610.17830893    43545.15295182       12.00000000      cm-1
   893    15623.49456279    43558.46920568       20.00000000      cm-1
   894    15647.34495904    43582.31960193       20.00000000      cm-1
   895    15648.67432781    43583.64897070       30.00000000      cm-1
   896    15678.46195764    43613.43660053       30.00000000      cm-1
   897    15678.49301706    43613.46765995       20.00000000      cm-1
   898    15687.57024913    43622.54489202       12.00000000      cm-1
   899    15697.40002527    43632.37466816       20.00000000      cm-1
   900    15739.70047519    43674.67511808       30.00000000      cm-1
   901    15748.66153450    43683.63617739       30.00000000      cm-1
   902    15753.85665278    43688.83129567       30.00000000      cm-1
   903    15783.38627409    43718.36091698       30.00000000      cm-1
   904    15793.60999423    43728.58463712       30.00000000      cm-1
   905    27311.50289989    55246.47754278        2.00000000      cm-1
   906    27316.87585095    55251.85049384        6.00000000      cm-1
   907    27357.20091010    55292.17555299        6.00000000      cm-1
   908    27367.15955019    55302.13419308       -0.00000000      cm-1
   909    27390.38124125    55325.35588414        2.00000000      cm-1
   910    27426.69229046    55361.66693335       12.00000000      cm-1
   911    27436.75854357    55371.73318646        6.00000000      cm-1
   912    27504.28468649    55439.25932938        2.00000000      cm-1
   913    27506.15202461    55441.12666750       12.00000000      cm-1
   914    27551.25247056    55486.22711345        6.00000000      cm-1
   915    27598.35762521    55533.33226810       20.00000000      cm-1
   916    27621.32372592    55556.29836881       12.00000000      cm-1
   917    27695.61136730    55630.58601019        6.00000000      cm-1
   918    27714.05581203    55649.03045492       20.00000000      cm-1
   919    27766.72658239    55701.70122528       12.00000000      cm-1
   920    27828.88283234    55763.85747523       30.00000000      cm-1
   921    27860.67170061    55795.64634350       20.00000000      cm-1
   922    27976.74348379    55911.71812668       30.00000000      cm-1
   923    28114.11652414    56049.09116703       42.00000000      cm-1
 Analysis of SCF Wavefunction

 --------------------------------------------------------------

                    Orbital Energies (a.u.)
 --------------------------------------------------------------

 Alpha MOs
 -- Occupied --
 -0.914  -0.914  -0.516  -0.516  -0.516  -0.515  -0.516  -0.515
 -0.516  -0.518  -0.516  -0.516  -0.516  -0.515
 -- Virtual --
  0.976   0.987   0.988   1.153   0.822   1.026   1.087   0.996
  1.022   1.075   1.028   1.102   1.108   1.010

 Beta MOs
 -- Occupied --
 -0.914  -0.914
 -- Virtual --
  0.147   0.148   0.147   0.147   0.147   0.147   0.147   0.148
  0.148   0.147   0.148   0.149   1.146   1.153   1.153   1.248
  1.001   1.183   1.212   1.158   1.186   1.203   1.162   1.224
  1.218   1.172
 --------------------------------------------------------------

          Ground-State Mulliken Net Atomic Charges

     Atom                 Charge (a.u.)
  ----------------------------------------
      1 H                     0.000090
      2 H                     0.000013
      3 H                    -0.000011
      4 H                     0.000004
      5 H                    -0.000017
      6 H                     0.000011
      7 H                     0.000016
      8 H                    -0.000015
      9 H                     0.000068
     10 H                    -0.000018
     11 H                    -0.000069
     12 H                    -0.000072
     13 He                    0.000000
     14 He                    0.000000
  ----------------------------------------
  Sum of atomic charges =    -0.000000

 -----------------------------------------------------------------
                    Cartesian Multipole Moments
 -----------------------------------------------------------------
    Charge (ESU x 10^10)
                -0.0000
    Dipole Moment (Debye)
         X      -0.0004      Y      -0.0005      Z       0.0003
       Tot       0.0007
    Quadrupole Moments (Debye-Ang)
        XX     -19.6142     XY       0.0145     YY     -19.5380
        XZ      -0.0002     YZ      -0.0070     ZZ     -19.5128
    Octopole Moments (Debye-Ang^2)
       XXX     -19.5131    XXY     -35.7250    XYY      -4.8401
       YYY    -109.8758    XXZ     -22.9175    XYZ      -0.0104
       YYZ     -23.8090    XZZ      -4.1132    YZZ     -35.6482
       ZZZ     -70.7100
    Hexadecapole Moments (Debye-Ang^3)
      XXXX   -1642.5301   XXXY     -13.3044   XXYY    -575.2378
      XYYY     -11.2356   YYYY   -1792.8776   XXXZ       3.4198
      XXYZ    -214.6871   XYYZ       0.0625   YYYZ    -653.5306
      XXZZ    -491.0300   XYZZ      -3.5954   YYZZ    -525.1285
      XZZZ       4.4606   YZZZ    -648.2299   ZZZZ   -1318.2274
 -----------------------------------------------------------------
 JobOver = TRUE
Archival summary:
1\1\sinatra\SP\ROProcedureUnspecified\6-31G*\e212()\nmayhall\MonMar2016:11:032017MonMar2016:11:032017\0\\#,ROProcedureUnspecified,6-31G*,\\0,13\H\H,1,1.8108\H,2,1.8111,1,60.0291\H,3,1.81133,2,60.0389,1,70.5227,0\H,1,2.837,2,152.386,3,178.05,0\H,5,1.8112,1,73.0863,2,-68.5028,0\H,6,1.81121,5,60.0005,1,-92.9521,0\H,7,1.81039,6,60.0315,5,-70.571,0\H,7,3.08536,6,122.881,5,97.0324,0\H,9,1.81065,7,137.212,6,162.951,0\H,9,1.81086,7,83.2306,6,133.231,0\H,10,1.81131,9,60.0237,7,-105.138,0\He,10,14.3461,9,123.709,7,33.3397,0\He,10,14.5791,9,123.848,7,145.916,0\\HF=-11.4713567\\@

 Total job time:  0.55s(wall), 0.55s(cpu) 
 Mon Mar 20 16:11:03 2017

        *************************************************************
        *                                                           *
        *  Thank you very much for using Q-Chem.  Have a nice day.  *
        *                                                           *
        *************************************************************


*** MISSION COMPLETED -- STARFLEET OUT ***

