Jobname.Temp
SP        RO                            6-31G(d)            
Number of atoms                            I               14
Charge                                     I                0
Multiplicity                               I               13
Number of electrons                        I               16
Number of alpha electrons                  I               14
Number of beta electrons                   I                2
Atomic numbers                             I   N=          14
           1           1           1           1           1           1
           1           1           1           1           1           1
           2           2
Current cartesian coordinates              R   N=          42
 -1.39563833E+00 -1.02168043E+00  1.62062912E-01 -4.37169242E+00 -1.92275854E+00
 -1.26643776E+00 -3.96052581E+00  1.23869658E+00 -2.16562614E-02 -4.17712622E+00
 -1.42555270E+00  2.11639877E+00  2.79063416E+00  7.31707625E+00  1.85722284E-01
  3.18418852E-01  8.42859426E+00  2.27798925E+00  3.45574216E-01  5.16802301E+00
  1.24094535E+00 -4.09806007E-01  7.66336856E+00 -9.77800989E-01  6.59230959E+00
 -1.65451191E+00 -1.14970937E-01  4.33973715E+00  9.17991157E-01 -3.60937690E-03
  3.66531279E+00 -2.01588424E+00  1.62501329E+00  3.62048849E+00 -1.90796198E+00
 -1.79565556E+00  1.88972612E+01  1.88972612E+01  1.88972612E+01 -1.88972612E+01
  1.88972612E+01  1.88972612E+01
Nuclear charges                            R   N=          14
  1.00000000E+00  1.00000000E+00  1.00000000E+00  1.00000000E+00  1.00000000E+00
  1.00000000E+00  1.00000000E+00  1.00000000E+00  1.00000000E+00  1.00000000E+00
  1.00000000E+00  1.00000000E+00  2.00000000E+00  2.00000000E+00
Number of basis functions                  I               28
Number of contracted shells                I               28
Number of primitive shells                 I               56
Highest angular momentum                   I                0
Largest degree of contraction              I                3
Shell types                                I   N=          28
           0           0           0           0           0           0
           0           0           0           0           0           0
           0           0           0           0           0           0
           0           0           0           0           0           0
           0           0           0           0
Number of primitives per shell             I   N=          28
           3           1           3           1           3           1
           3           1           3           1           3           1
           3           1           3           1           3           1
           3           1           3           1           3           1
           3           1           3           1
Shell to atom map                          I   N=          28
           1           1           2           2           3           3
           4           4           5           5           6           6
           7           7           8           8           9           9
          10          10          11          11          12          12
          13          13          14          14
Primitive exponents                        R   N=          56
  1.87311370E+01  2.82539370E+00  6.40121700E-01  1.61277800E-01  1.87311370E+01
  2.82539370E+00  6.40121700E-01  1.61277800E-01  1.87311370E+01  2.82539370E+00
  6.40121700E-01  1.61277800E-01  1.87311370E+01  2.82539370E+00  6.40121700E-01
  1.61277800E-01  1.87311370E+01  2.82539370E+00  6.40121700E-01  1.61277800E-01
  1.87311370E+01  2.82539370E+00  6.40121700E-01  1.61277800E-01  1.87311370E+01
  2.82539370E+00  6.40121700E-01  1.61277800E-01  1.87311370E+01  2.82539370E+00
  6.40121700E-01  1.61277800E-01  1.87311370E+01  2.82539370E+00  6.40121700E-01
  1.61277800E-01  1.87311370E+01  2.82539370E+00  6.40121700E-01  1.61277800E-01
  1.87311370E+01  2.82539370E+00  6.40121700E-01  1.61277800E-01  1.87311370E+01
  2.82539370E+00  6.40121700E-01  1.61277800E-01  3.84216340E+01  5.77803000E+00
  1.24177400E+00  2.97964000E-01  3.84216340E+01  5.77803000E+00  1.24177400E+00
  2.97964000E-01
Contraction coefficients                   R   N=          56
  3.34945995E-02  2.34726947E-01  8.13757318E-01  1.00000000E+00  3.34945995E-02
  2.34726947E-01  8.13757318E-01  1.00000000E+00  3.34945995E-02  2.34726947E-01
  8.13757318E-01  1.00000000E+00  3.34945995E-02  2.34726947E-01  8.13757318E-01
  1.00000000E+00  3.34945995E-02  2.34726947E-01  8.13757318E-01  1.00000000E+00
  3.34945995E-02  2.34726947E-01  8.13757318E-01  1.00000000E+00  3.34945995E-02
  2.34726947E-01  8.13757318E-01  1.00000000E+00  3.34945995E-02  2.34726947E-01
  8.13757318E-01  1.00000000E+00  3.34945995E-02  2.34726947E-01  8.13757318E-01
  1.00000000E+00  3.34945995E-02  2.34726947E-01  8.13757318E-01  1.00000000E+00
  3.34945995E-02  2.34726947E-01  8.13757318E-01  1.00000000E+00  3.34945995E-02
  2.34726947E-01  8.13757318E-01  1.00000000E+00  4.01397393E-02  2.61246097E-01
  7.93184625E-01  1.00000000E+00  4.01397393E-02  2.61246097E-01  7.93184625E-01
  1.00000000E+00
Coordinates of each shell                  R   N=          84
 -1.39563833E+00 -1.02168043E+00  1.62062912E-01 -1.39563833E+00 -1.02168043E+00
  1.62062912E-01 -4.37169242E+00 -1.92275854E+00 -1.26643776E+00 -4.37169242E+00
 -1.92275854E+00 -1.26643776E+00 -3.96052581E+00  1.23869658E+00 -2.16562614E-02
 -3.96052581E+00  1.23869658E+00 -2.16562614E-02 -4.17712622E+00 -1.42555270E+00
  2.11639877E+00 -4.17712622E+00 -1.42555270E+00  2.11639877E+00  2.79063416E+00
  7.31707625E+00  1.85722284E-01  2.79063416E+00  7.31707625E+00  1.85722284E-01
  3.18418852E-01  8.42859426E+00  2.27798925E+00  3.18418852E-01  8.42859426E+00
  2.27798925E+00  3.45574216E-01  5.16802301E+00  1.24094535E+00  3.45574216E-01
  5.16802301E+00  1.24094535E+00 -4.09806007E-01  7.66336856E+00 -9.77800989E-01
 -4.09806007E-01  7.66336856E+00 -9.77800989E-01  6.59230959E+00 -1.65451191E+00
 -1.14970937E-01  6.59230959E+00 -1.65451191E+00 -1.14970937E-01  4.33973715E+00
  9.17991157E-01 -3.60937690E-03  4.33973715E+00  9.17991157E-01 -3.60937690E-03
  3.66531279E+00 -2.01588424E+00  1.62501329E+00  3.66531279E+00 -2.01588424E+00
  1.62501329E+00  3.62048849E+00 -1.90796198E+00 -1.79565556E+00  3.62048849E+00
 -1.90796198E+00 -1.79565556E+00  1.88972612E+01  1.88972612E+01  1.88972612E+01
  1.88972612E+01  1.88972612E+01  1.88972612E+01 -1.88972612E+01  1.88972612E+01
  1.88972612E+01 -1.88972612E+01  1.88972612E+01  1.88972612E+01
SCF Energy                                 R     -1.147156233218139E+01
Number of independent functions            I               28
Alpha MO coefficients                      R   N=         784
  6.53384615E-22 -1.68889401E-22 -2.85901883E-23  7.17112723E-22  4.64663642E-22
 -1.35096223E-21  1.09624329E-22  6.22334756E-23 -4.46554758E-21  6.12050366E-21
  1.30631234E-21 -2.34928040E-21  2.85687934E-24 -3.18689952E-22 -5.71828608E-22
 -1.03272933E-21 -8.51120061E-23  7.65227047E-22 -9.17788310E-22  8.85889651E-22
 -3.07779143E-21  4.05029261E-21  4.11926624E-21 -5.11140128E-21 -5.92081261E-01
 -5.13586011E-01  4.91319594E-22 -5.07292731E-22  2.63465687E-16 -2.90166860E-16
  9.04736208E-17 -1.00180453E-16 -1.83347151E-16  3.16019170E-16  1.25739943E-16
  1.38058604E-16 -2.49935538E-16 -2.30353090E-18  2.31381553E-16 -1.18315240E-16
 -6.67273757E-17  2.01756255E-16  1.76054851E-16  1.63104273E-16 -7.86994196E-17
  4.93603207E-17 -6.99839899E-17  4.65437229E-16  3.75248637E-16 -3.62523471E-16
 -7.79970980E-17 -3.38225252E-17 -1.06478713E-16  1.09918125E-16 -5.92081261E-01
 -5.13586011E-01  1.65100957E-02  9.02983931E-02 -4.43570125E-01 -7.24317639E-01
  1.62191557E-02  8.99274087E-02  1.60237573E-02  8.97794550E-02  6.48435335E-04
 -1.86775875E-04  5.52653538E-04 -1.03276189E-04 -3.87682078E-03 -4.52478457E-04
 -3.01116893E-04  2.84434027E-04  9.55065980E-04  5.80746960E-04 -1.31583496E-03
  1.45856014E-04 -2.52119097E-03 -1.86840323E-03 -4.95640413E-04 -2.06694457E-03
  4.08205207E-17  5.69806921E-17  7.09802297E-17  6.15700165E-17 -9.24359970E-04
 -1.85282677E-04  4.79502295E-06  1.41783700E-04  1.63875979E-03 -9.24474568E-04
 -3.66109838E-04  3.87565684E-04  1.61722176E-02  8.99197517E-02  1.60467151E-02
  9.00485774E-02  1.61639289E-02  8.99188863E-02 -4.43531389E-01 -7.24303591E-01
  4.40216488E-04 -2.31639207E-05 -2.59789263E-03 -8.37323948E-04  1.05872435E-05
  2.05608297E-04  3.41482648E-04  1.33470213E-05  3.65853419E-17  5.60041811E-17
  1.57714956E-16  1.36805875E-16  7.52547429E-03  4.13548464E-03 -8.06401818E-04
 -4.78228341E-04 -8.23304242E-04 -4.35335521E-04 -7.65678132E-04 -4.82424657E-04
  1.06659369E-03 -6.07407377E-05 -5.90805858E-04  1.22224244E-04  2.58832729E-03
  4.47745242E-04 -3.60460959E-04 -3.84495837E-05  4.43811484E-01  7.24054418E-01
 -1.64335916E-02 -9.00447289E-02 -1.67795475E-02 -8.97527060E-02 -1.66896037E-02
 -8.98392636E-02  1.03264935E-16  1.05936745E-16  1.11087181E-16  9.63597834E-17
  7.99726802E-03  1.71082993E-02  4.69197566E-04 -3.05563466E-03 -8.20384538E-04
 -2.52373546E-03 -1.66804486E-03 -2.11152126E-03 -1.06054281E-03  6.96485860E-05
  4.04652764E-04  2.67876362E-05 -1.51226868E-03 -8.48703902E-04  3.36369273E-04
  5.99013201E-05  1.62826127E-02  8.97243056E-02  1.58481101E-02  9.00786450E-02
  1.53272852E-02  8.98924923E-02 -4.43874413E-01 -7.24819547E-01 -5.53696471E-17
 -6.69813750E-17 -8.08885479E-17 -7.01647381E-17 -1.61936874E-02 -9.02084154E-02
 -1.61486296E-02 -8.99411692E-02  4.43892074E-01  7.24351270E-01 -1.60550493E-02
 -9.00035492E-02  1.68704830E-03  1.00548218E-03  1.01252342E-03  1.41655178E-03
 -7.91324862E-03 -9.59501382E-03 -2.46668606E-03  1.65955718E-03 -9.65015499E-04
 -5.74219376E-04  1.49916755E-04  2.93749972E-04  2.36902078E-03  1.89010050E-03
  1.78697264E-03  1.66781503E-03 -1.13978972E-16 -1.17650056E-16 -1.69848981E-16
 -1.47331230E-16  3.06855507E-03  4.04033738E-03 -7.56563406E-04 -4.11678722E-04
  3.90915735E-04 -1.02465133E-03 -6.39231129E-04 -4.88054078E-04  5.63236346E-03
  1.05357494E-03 -2.24446871E-03 -1.27736942E-03  8.60332101E-03  8.97658462E-03
 -1.23949929E-03 -1.72027548E-03  1.61770554E-02  9.01494896E-02 -4.43911893E-01
 -7.24457163E-01  1.58377621E-02  9.00211461E-02  1.59386875E-02  8.99346665E-02
 -4.22014513E-17 -5.04035490E-17  1.04861658E-16  9.09596104E-17 -1.64236077E-02
 -9.01952038E-02 -1.60247816E-02 -8.97507850E-02 -1.61465590E-02 -8.99923376E-02
  4.43505429E-01  7.24321542E-01 -3.76954425E-04  1.01212368E-05 -3.54185417E-04
 -4.61902961E-06  1.97690962E-03  1.04046604E-03  5.73038080E-04 -4.48901670E-04
 -9.24983179E-04 -5.74693608E-04  1.18972439E-03 -1.19072464E-04  3.74752927E-04
  2.52423311E-03  2.62998477E-03  1.32897437E-03 -1.65540602E-16 -1.37170129E-16
 -1.54971966E-16 -1.34426537E-16 -1.35518350E-03  1.43850775E-04  5.84140241E-04
 -1.03389215E-04 -2.10572758E-03 -6.64379867E-04  2.83564075E-04  7.29097621E-05
  1.61338078E-02  8.97499284E-02 -4.43569947E-01 -7.24267644E-01  1.63572624E-02
  8.99732547E-02  1.60534630E-02  9.00720560E-02  6.05273496E-04 -1.38678219E-04
 -3.65086618E-03 -4.69081150E-04  1.70452067E-04  7.48468899E-05  3.50939158E-04
  4.90113167E-06  1.77101360E-17 -6.70104706E-18  7.42763056E-17  6.44291147E-17
  8.73893571E-03  2.01792301E-02 -1.48247531E-03 -2.73981411E-03 -1.34035376E-03
 -2.72340696E-03  6.40223512E-04 -3.53383829E-03 -1.24637173E-03  1.53371954E-04
  2.85840166E-04  6.73672540E-05 -2.74853328E-04 -1.14313734E-03  6.73781479E-05
  2.24837901E-04  1.63345284E-02  8.95563899E-02  1.57265584E-02  9.01939529E-02
 -4.44009752E-01 -7.24955132E-01  1.53039400E-02  8.99316130E-02 -5.59593112E-17
 -4.92409456E-17  8.49093015E-18  7.36524398E-18  9.89226738E-04  6.80104147E-05
 -6.58188700E-04  1.67348024E-04  2.79851493E-03  3.41712986E-04 -2.83425014E-04
 -6.96136655E-05  4.43630335E-01  7.24231184E-01 -1.61281501E-02 -8.97473988E-02
 -1.59519720E-02 -9.02002732E-02 -1.61538868E-02 -8.99160331E-02  5.06607986E-04
  2.99338255E-04 -4.73294059E-03 -2.06559732E-03  8.14574945E-04  1.13046934E-04
  5.69168590E-04  2.44143114E-04 -2.18904090E-17 -1.22078081E-17  1.24513203E-16
  1.08005849E-16 -5.58232987E-03 -1.72501918E-03  2.41367700E-03  1.30232755E-03
 -8.26189877E-03 -8.96585099E-03  5.94962098E-04  2.04498385E-03 -1.58257185E-02
 -9.02581842E-02 -1.62144206E-02 -9.00039225E-02  4.44366231E-01  7.24274563E-01
 -1.60057919E-02 -8.98971228E-02  1.60785417E-03  1.04059180E-03 -8.12710713E-03
 -9.72563416E-03 -5.81662972E-04  1.74795348E-03  5.95203898E-04  1.44672096E-03
 -3.61304286E-17 -1.84469907E-17 -6.97913736E-17 -6.05387732E-17  4.45053566E-01
  7.25034557E-01 -1.60968926E-02 -9.01372823E-02 -1.58579350E-02 -8.99709225E-02
 -1.59975982E-02 -9.00566840E-02  3.99892509E-04  4.78190594E-04  7.83858987E-04
  1.94299156E-04 -4.63370327E-03 -2.78857684E-03  6.27669063E-04  3.98850170E-04
  4.90584239E-03  6.06390774E-03 -4.91524644E-03 -1.56558011E-03 -9.86500905E-03
 -1.71258376E-02 -9.24045014E-03 -1.41807702E-02 -6.69290463E-17 -4.87496577E-17
 -1.34753575E-16 -1.16888603E-16  5.99773610E-01 -6.18928360E-01 -2.92603104E-01
  3.70283914E-01  2.17072931E-01 -1.95798729E-01 -2.13692652E-01  2.80559173E-01
  1.92324462E-02  1.55253433E-02 -2.47085358E-01  3.14582418E-01  6.41734835E-01
 -6.76376192E-01 -1.47790696E-01  2.01731214E-01 -4.34128518E-01  5.39813568E-01
  5.06860122E-01 -5.05225927E-01  2.01985867E-01 -1.53612138E-01  1.42216583E-01
 -8.94143767E-02 -2.00688360E-17  2.06872063E-17 -3.74067571E-17  3.91259779E-17
 -5.57675327E-01  6.14559727E-01 -4.67535382E-02  5.56694679E-02  5.66219923E-01
 -6.43744971E-01  2.70835662E-02 -2.95418585E-02  6.36803204E-02 -4.43941178E-02
 -2.47660361E-01  3.12117838E-01  4.15194182E-01 -4.37314038E-01 -2.72314438E-02
  5.81582591E-02  3.45317657E-01 -4.22063215E-01  3.63239310E-01 -4.44232525E-01
 -4.56601523E-01  4.75357092E-01 -4.73461621E-01  4.98250140E-01  1.26735513E-16
 -1.39571826E-16 -6.09880353E-17 -5.04622896E-17  2.60235345E-02 -6.20021219E-03
 -2.51180308E-01  3.09919582E-01  5.38913846E-01 -6.09457196E-01 -1.89186686E-01
  2.37406613E-01 -7.96491521E-01  9.22755752E-01  1.29527296E-01 -1.56165943E-01
  1.94715538E-01 -2.32157950E-01  4.35665509E-01 -5.13824364E-01  1.34272073E-01
 -1.66115672E-01 -5.07722988E-01  5.83448616E-01  1.62250259E-01 -1.98269689E-01
  1.48533131E-01 -1.82310170E-01  1.20431110E-16 -1.12459799E-16 -4.10227362E-16
  4.10877977E-16 -1.13269179E-02  1.61727764E-02 -5.67649778E-01  6.70225005E-01
 -9.77831062E-02  1.16335560E-01  6.80388937E-01 -8.03338769E-01 -5.75530102E-02
  6.47501496E-02  1.39467588E-01 -1.67638079E-01  4.31890078E-02 -5.68514978E-02
 -1.48483638E-01  1.72373804E-01  4.77628360E-02 -5.75400270E-02 -3.83903971E-02
  4.46920277E-02  6.10130224E-01 -7.21945504E-01 -6.27491251E-01  7.39212276E-01
  9.77355362E-16 -1.00824848E-15 -5.39884371E-16  5.28801749E-16 -2.40239563E-02
  2.64655494E-02  8.68830541E-02 -1.02214766E-01  4.56611776E-02 -4.91821988E-02
 -1.01042656E-01  1.20866583E-01 -2.50464303E-01  2.98633233E-01  8.62009004E-01
 -1.02242946E+00  2.33184951E-01 -2.74410663E-01 -8.34820838E-01  9.92758456E-01
  7.54672320E-02 -9.01383777E-02  1.61473291E-02 -1.68847022E-02 -1.68431840E-01
  1.98202016E-01  7.36254875E-02 -8.89944039E-02 -8.53278764E-16  8.38729944E-16
  8.51133893E-16 -3.52976210E-16  9.62392115E-03 -7.48012975E-03  6.28105297E-01
 -7.48413363E-01  1.59095591E-02 -1.73833967E-02 -6.42972722E-01  7.68302084E-01
 -2.71541849E-02  3.26197833E-02  1.43473699E-02 -1.69559160E-02  2.18834198E-02
 -2.53179516E-02 -7.29754193E-03  8.89112340E-03  2.75649802E-02 -3.26001750E-02
  9.25906974E-03 -1.02809203E-02  6.20690360E-01 -7.39893029E-01 -6.54054481E-01
  7.81079774E-01  1.05627563E-15 -1.11953406E-15 -1.18155783E-15  1.18252768E-15
 -4.67617029E-02  8.78354233E-02  4.07343875E-01 -4.55690808E-01 -4.74733560E-01
  6.15735253E-01  3.61034739E-01 -3.99652399E-01 -6.86506052E-01  8.45055957E-01
  1.55858998E-01 -1.76933182E-01  1.98638568E-01 -2.29361009E-01  4.10381986E-01
 -4.85487669E-01 -3.00763204E-01  3.36222992E-01  4.99958369E-01 -6.34601502E-01
 -2.28707059E-01  2.45132440E-01 -1.64710841E-01  1.68188067E-01 -6.06569905E-16
  6.47366257E-16  1.88329012E-16 -3.64817650E-16  4.03606493E-01 -4.83438141E-01
  1.23116936E-01 -1.32271018E-01 -4.72886457E-01  6.03621218E-01  6.45307991E-02
 -6.09531175E-02 -2.04939951E-01  1.82863227E-01 -4.11800652E-01  4.36792411E-01
  3.70165044E-01 -5.29310012E-01 -2.02025428E-01  1.80255047E-01  9.28190639E-01
 -1.00717760E+00 -1.14984867E-01  2.80477070E-01 -1.87377196E-02  1.67892686E-01
  8.35365079E-02  4.07030577E-02  5.48671633E-17 -9.86149122E-17  5.22798038E-16
 -5.83670876E-16 -3.53330123E-01  5.57657424E-01  5.00494461E-01 -5.13533593E-01
  1.12220862E-01 -2.73697876E-02  4.35482442E-01 -4.33593750E-01 -8.76624338E-02
  1.12482573E-02 -4.87365415E-01  5.04675353E-01  3.73162256E-01 -5.64004997E-01
 -4.28187168E-01  4.32013021E-01 -4.43679812E-01  4.68381560E-01 -5.13832227E-01
  5.56222792E-01  1.97675663E-01 -3.41339517E-01  2.21496531E-01 -3.67759252E-01
 -1.96423957E-16  2.14257348E-16 -1.56416323E-16  9.40547003E-18 -2.61180922E-01
  3.43623912E-02 -5.32126602E-01  3.93719223E-01 -4.74679055E-01  3.20229959E-01
 -5.29413465E-01  3.90207120E-01 -4.56809075E-01  3.36515671E-01 -4.59396013E-01
  3.40080849E-01 -2.18817346E-01  2.95939592E-02 -4.07859398E-01  2.74649717E-01
 -3.25858684E-01  2.45575405E-01 -1.55132961E-01  2.66567407E-02 -2.93119062E-01
  2.02307032E-01 -2.93811553E-01  2.03455265E-01  4.93504569E-17 -3.65305834E-17
  3.38901886E-16 -3.69950797E-16 -2.51578464E-01  1.28013236E-01 -2.01466259E-01
  6.66248449E-02 -5.15439755E-01  4.84082374E-01 -2.32962023E-01  1.07244377E-01
  4.76398637E-01 -2.87525097E-01  3.50209888E-01 -1.22138148E-01  7.97683664E-01
 -7.16944852E-01  4.20087678E-01 -2.12734814E-01 -1.38173648E-01  4.55451572E-02
 -4.69131259E-01  4.84696839E-01 -1.22115183E-01  1.94719762E-02 -9.88183374E-02
 -9.95825953E-03  2.35117238E-15 -2.42025570E-15 -7.71230934E-16  7.26305857E-16
  7.76492545E-01 -8.27417016E-01  1.91450569E-01 -1.72760942E-02  2.27127791E-01
 -6.54115547E-02  1.98781119E-01 -2.70304632E-02  7.99941045E-02 -1.04896214E-01
  1.85622460E-03 -1.28870903E-03 -6.46792116E-02  8.62015644E-02 -1.09740777E-02
  1.54630179E-02 -2.43706827E-01 -2.25662203E-02 -5.08281857E-01  3.32882950E-01
 -6.53352152E-01  5.44377878E-01 -6.37158243E-01  5.19179375E-01 -3.84280031E-15
  3.97305671E-15 -5.07093764E-16  5.52391952E-16  3.68484391E-15 -3.51611961E-15
  1.41499673E-15 -3.80426827E-16  2.07705562E-15 -1.30705657E-15  1.61710963E-15
 -6.64385413E-16 -1.93302220E-15  1.45900457E-15  3.71546531E-16 -1.20152629E-15
 -1.97258795E-15  1.65283223E-15 -2.00241007E-15  1.71122804E-15 -9.76932000E-16
  1.94851709E-16 -7.35073137E-16 -3.51584631E-17 -3.26081621E-15  3.25643411E-15
 -1.19960074E-15  7.66280441E-16  1.14981805E+00 -1.18695880E+00 -8.01498418E-11
  8.27388548E-11 -1.11179928E-16  5.97265821E-17 -2.94259588E-16  2.77106411E-16
 -5.73224022E-16  6.46835312E-16  4.74143591E-16 -6.99395522E-16 -6.16370588E-16
  4.05407566E-16 -1.50128466E-16 -1.06680716E-16 -3.95008998E-16  1.92310097E-16
 -1.11869083E-15  9.51826068E-16  5.67026625E-16 -4.10357054E-16  9.30835999E-16
 -9.16772759E-16 -1.26326774E-15  1.73416795E-15  1.55416239E-15 -1.62384871E-15
 -8.01501988E-11  8.27391727E-11 -1.14981805E+00  1.18695880E+00
Beta MO coefficients                       R   N=         784
  6.53384615E-22 -1.68889401E-22 -2.85901883E-23  7.17112723E-22  4.64663642E-22
 -1.35096223E-21  1.09624329E-22  6.22334756E-23 -4.46554758E-21  6.12050366E-21
  1.30631234E-21 -2.34928040E-21  2.85687934E-24 -3.18689952E-22 -5.71828608E-22
 -1.03272933E-21 -8.51120061E-23  7.65227047E-22 -9.17788310E-22  8.85889651E-22
 -3.07779143E-21  4.05029261E-21  4.11926624E-21 -5.11140128E-21 -5.92081261E-01
 -5.13586011E-01  4.91319594E-22 -5.07292731E-22  2.63465687E-16 -2.90166860E-16
  9.04736208E-17 -1.00180453E-16 -1.83347151E-16  3.16019170E-16  1.25739943E-16
  1.38058604E-16 -2.49935538E-16 -2.30353090E-18  2.31381553E-16 -1.18315240E-16
 -6.67273757E-17  2.01756255E-16  1.76054851E-16  1.63104273E-16 -7.86994196E-17
  4.93603207E-17 -6.99839899E-17  4.65437229E-16  3.75248637E-16 -3.62523471E-16
 -7.79970980E-17 -3.38225252E-17 -1.06478713E-16  1.09918125E-16 -5.92081261E-01
 -5.13586011E-01  1.65100957E-02  9.02983931E-02 -4.43570125E-01 -7.24317639E-01
  1.62191557E-02  8.99274087E-02  1.60237573E-02  8.97794550E-02  6.48435335E-04
 -1.86775875E-04  5.52653538E-04 -1.03276189E-04 -3.87682078E-03 -4.52478457E-04
 -3.01116893E-04  2.84434027E-04  9.55065980E-04  5.80746960E-04 -1.31583496E-03
  1.45856014E-04 -2.52119097E-03 -1.86840323E-03 -4.95640413E-04 -2.06694457E-03
  4.08205207E-17  5.69806921E-17  7.09802297E-17  6.15700165E-17 -9.24359970E-04
 -1.85282677E-04  4.79502295E-06  1.41783700E-04  1.63875979E-03 -9.24474568E-04
 -3.66109838E-04  3.87565684E-04  1.61722176E-02  8.99197517E-02  1.60467151E-02
  9.00485774E-02  1.61639289E-02  8.99188863E-02 -4.43531389E-01 -7.24303591E-01
  4.40216488E-04 -2.31639207E-05 -2.59789263E-03 -8.37323948E-04  1.05872435E-05
  2.05608297E-04  3.41482648E-04  1.33470213E-05  3.65853419E-17  5.60041811E-17
  1.57714956E-16  1.36805875E-16  7.52547429E-03  4.13548464E-03 -8.06401818E-04
 -4.78228341E-04 -8.23304242E-04 -4.35335521E-04 -7.65678132E-04 -4.82424657E-04
  1.06659369E-03 -6.07407377E-05 -5.90805858E-04  1.22224244E-04  2.58832729E-03
  4.47745242E-04 -3.60460959E-04 -3.84495837E-05  4.43811484E-01  7.24054418E-01
 -1.64335916E-02 -9.00447289E-02 -1.67795475E-02 -8.97527060E-02 -1.66896037E-02
 -8.98392636E-02  1.03264935E-16  1.05936745E-16  1.11087181E-16  9.63597834E-17
  7.99726802E-03  1.71082993E-02  4.69197566E-04 -3.05563466E-03 -8.20384538E-04
 -2.52373546E-03 -1.66804486E-03 -2.11152126E-03 -1.06054281E-03  6.96485860E-05
  4.04652764E-04  2.67876362E-05 -1.51226868E-03 -8.48703902E-04  3.36369273E-04
  5.99013201E-05  1.62826127E-02  8.97243056E-02  1.58481101E-02  9.00786450E-02
  1.53272852E-02  8.98924923E-02 -4.43874413E-01 -7.24819547E-01 -5.53696471E-17
 -6.69813750E-17 -8.08885479E-17 -7.01647381E-17 -1.61936874E-02 -9.02084154E-02
 -1.61486296E-02 -8.99411692E-02  4.43892074E-01  7.24351270E-01 -1.60550493E-02
 -9.00035492E-02  1.68704830E-03  1.00548218E-03  1.01252342E-03  1.41655178E-03
 -7.91324862E-03 -9.59501382E-03 -2.46668606E-03  1.65955718E-03 -9.65015499E-04
 -5.74219376E-04  1.49916755E-04  2.93749972E-04  2.36902078E-03  1.89010050E-03
  1.78697264E-03  1.66781503E-03 -1.13978972E-16 -1.17650056E-16 -1.69848981E-16
 -1.47331230E-16  3.06855507E-03  4.04033738E-03 -7.56563406E-04 -4.11678722E-04
  3.90915735E-04 -1.02465133E-03 -6.39231129E-04 -4.88054078E-04  5.63236346E-03
  1.05357494E-03 -2.24446871E-03 -1.27736942E-03  8.60332101E-03  8.97658462E-03
 -1.23949929E-03 -1.72027548E-03  1.61770554E-02  9.01494896E-02 -4.43911893E-01
 -7.24457163E-01  1.58377621E-02  9.00211461E-02  1.59386875E-02  8.99346665E-02
 -4.22014513E-17 -5.04035490E-17  1.04861658E-16  9.09596104E-17 -1.64236077E-02
 -9.01952038E-02 -1.60247816E-02 -8.97507850E-02 -1.61465590E-02 -8.99923376E-02
  4.43505429E-01  7.24321542E-01 -3.76954425E-04  1.01212368E-05 -3.54185417E-04
 -4.61902961E-06  1.97690962E-03  1.04046604E-03  5.73038080E-04 -4.48901670E-04
 -9.24983179E-04 -5.74693608E-04  1.18972439E-03 -1.19072464E-04  3.74752927E-04
  2.52423311E-03  2.62998477E-03  1.32897437E-03 -1.65540602E-16 -1.37170129E-16
 -1.54971966E-16 -1.34426537E-16 -1.35518350E-03  1.43850775E-04  5.84140241E-04
 -1.03389215E-04 -2.10572758E-03 -6.64379867E-04  2.83564075E-04  7.29097621E-05
  1.61338078E-02  8.97499284E-02 -4.43569947E-01 -7.24267644E-01  1.63572624E-02
  8.99732547E-02  1.60534630E-02  9.00720560E-02  6.05273496E-04 -1.38678219E-04
 -3.65086618E-03 -4.69081150E-04  1.70452067E-04  7.48468899E-05  3.50939158E-04
  4.90113167E-06  1.77101360E-17 -6.70104706E-18  7.42763056E-17  6.44291147E-17
  8.73893571E-03  2.01792301E-02 -1.48247531E-03 -2.73981411E-03 -1.34035376E-03
 -2.72340696E-03  6.40223512E-04 -3.53383829E-03 -1.24637173E-03  1.53371954E-04
  2.85840166E-04  6.73672540E-05 -2.74853328E-04 -1.14313734E-03  6.73781479E-05
  2.24837901E-04  1.63345284E-02  8.95563899E-02  1.57265584E-02  9.01939529E-02
 -4.44009752E-01 -7.24955132E-01  1.53039400E-02  8.99316130E-02 -5.59593112E-17
 -4.92409456E-17  8.49093015E-18  7.36524398E-18  9.89226738E-04  6.80104147E-05
 -6.58188700E-04  1.67348024E-04  2.79851493E-03  3.41712986E-04 -2.83425014E-04
 -6.96136655E-05  4.43630335E-01  7.24231184E-01 -1.61281501E-02 -8.97473988E-02
 -1.59519720E-02 -9.02002732E-02 -1.61538868E-02 -8.99160331E-02  5.06607986E-04
  2.99338255E-04 -4.73294059E-03 -2.06559732E-03  8.14574945E-04  1.13046934E-04
  5.69168590E-04  2.44143114E-04 -2.18904090E-17 -1.22078081E-17  1.24513203E-16
  1.08005849E-16 -5.58232987E-03 -1.72501918E-03  2.41367700E-03  1.30232755E-03
 -8.26189877E-03 -8.96585099E-03  5.94962098E-04  2.04498385E-03 -1.58257185E-02
 -9.02581842E-02 -1.62144206E-02 -9.00039225E-02  4.44366231E-01  7.24274563E-01
 -1.60057919E-02 -8.98971228E-02  1.60785417E-03  1.04059180E-03 -8.12710713E-03
 -9.72563416E-03 -5.81662972E-04  1.74795348E-03  5.95203898E-04  1.44672096E-03
 -3.61304286E-17 -1.84469907E-17 -6.97913736E-17 -6.05387732E-17  4.45053566E-01
  7.25034557E-01 -1.60968926E-02 -9.01372823E-02 -1.58579350E-02 -8.99709225E-02
 -1.59975982E-02 -9.00566840E-02  3.99892509E-04  4.78190594E-04  7.83858987E-04
  1.94299156E-04 -4.63370327E-03 -2.78857684E-03  6.27669063E-04  3.98850170E-04
  4.90584239E-03  6.06390774E-03 -4.91524644E-03 -1.56558011E-03 -9.86500905E-03
 -1.71258376E-02 -9.24045014E-03 -1.41807702E-02 -6.69290463E-17 -4.87496577E-17
 -1.34753575E-16 -1.16888603E-16  5.99773610E-01 -6.18928360E-01 -2.92603104E-01
  3.70283914E-01  2.17072931E-01 -1.95798729E-01 -2.13692652E-01  2.80559173E-01
  1.92324462E-02  1.55253433E-02 -2.47085358E-01  3.14582418E-01  6.41734835E-01
 -6.76376192E-01 -1.47790696E-01  2.01731214E-01 -4.34128518E-01  5.39813568E-01
  5.06860122E-01 -5.05225927E-01  2.01985867E-01 -1.53612138E-01  1.42216583E-01
 -8.94143767E-02 -2.00688360E-17  2.06872063E-17 -3.74067571E-17  3.91259779E-17
 -5.57675327E-01  6.14559727E-01 -4.67535382E-02  5.56694679E-02  5.66219923E-01
 -6.43744971E-01  2.70835662E-02 -2.95418585E-02  6.36803204E-02 -4.43941178E-02
 -2.47660361E-01  3.12117838E-01  4.15194182E-01 -4.37314038E-01 -2.72314438E-02
  5.81582591E-02  3.45317657E-01 -4.22063215E-01  3.63239310E-01 -4.44232525E-01
 -4.56601523E-01  4.75357092E-01 -4.73461621E-01  4.98250140E-01  1.26735513E-16
 -1.39571826E-16 -6.09880353E-17 -5.04622896E-17  2.60235345E-02 -6.20021219E-03
 -2.51180308E-01  3.09919582E-01  5.38913846E-01 -6.09457196E-01 -1.89186686E-01
  2.37406613E-01 -7.96491521E-01  9.22755752E-01  1.29527296E-01 -1.56165943E-01
  1.94715538E-01 -2.32157950E-01  4.35665509E-01 -5.13824364E-01  1.34272073E-01
 -1.66115672E-01 -5.07722988E-01  5.83448616E-01  1.62250259E-01 -1.98269689E-01
  1.48533131E-01 -1.82310170E-01  1.20431110E-16 -1.12459799E-16 -4.10227362E-16
  4.10877977E-16 -1.13269179E-02  1.61727764E-02 -5.67649778E-01  6.70225005E-01
 -9.77831062E-02  1.16335560E-01  6.80388937E-01 -8.03338769E-01 -5.75530102E-02
  6.47501496E-02  1.39467588E-01 -1.67638079E-01  4.31890078E-02 -5.68514978E-02
 -1.48483638E-01  1.72373804E-01  4.77628360E-02 -5.75400270E-02 -3.83903971E-02
  4.46920277E-02  6.10130224E-01 -7.21945504E-01 -6.27491251E-01  7.39212276E-01
  9.77355362E-16 -1.00824848E-15 -5.39884371E-16  5.28801749E-16 -2.40239563E-02
  2.64655494E-02  8.68830541E-02 -1.02214766E-01  4.56611776E-02 -4.91821988E-02
 -1.01042656E-01  1.20866583E-01 -2.50464303E-01  2.98633233E-01  8.62009004E-01
 -1.02242946E+00  2.33184951E-01 -2.74410663E-01 -8.34820838E-01  9.92758456E-01
  7.54672320E-02 -9.01383777E-02  1.61473291E-02 -1.68847022E-02 -1.68431840E-01
  1.98202016E-01  7.36254875E-02 -8.89944039E-02 -8.53278764E-16  8.38729944E-16
  8.51133893E-16 -3.52976210E-16  9.62392115E-03 -7.48012975E-03  6.28105297E-01
 -7.48413363E-01  1.59095591E-02 -1.73833967E-02 -6.42972722E-01  7.68302084E-01
 -2.71541849E-02  3.26197833E-02  1.43473699E-02 -1.69559160E-02  2.18834198E-02
 -2.53179516E-02 -7.29754193E-03  8.89112340E-03  2.75649802E-02 -3.26001750E-02
  9.25906974E-03 -1.02809203E-02  6.20690360E-01 -7.39893029E-01 -6.54054481E-01
  7.81079774E-01  1.05627563E-15 -1.11953406E-15 -1.18155783E-15  1.18252768E-15
 -4.67617029E-02  8.78354233E-02  4.07343875E-01 -4.55690808E-01 -4.74733560E-01
  6.15735253E-01  3.61034739E-01 -3.99652399E-01 -6.86506052E-01  8.45055957E-01
  1.55858998E-01 -1.76933182E-01  1.98638568E-01 -2.29361009E-01  4.10381986E-01
 -4.85487669E-01 -3.00763204E-01  3.36222992E-01  4.99958369E-01 -6.34601502E-01
 -2.28707059E-01  2.45132440E-01 -1.64710841E-01  1.68188067E-01 -6.06569905E-16
  6.47366257E-16  1.88329012E-16 -3.64817650E-16  4.03606493E-01 -4.83438141E-01
  1.23116936E-01 -1.32271018E-01 -4.72886457E-01  6.03621218E-01  6.45307991E-02
 -6.09531175E-02 -2.04939951E-01  1.82863227E-01 -4.11800652E-01  4.36792411E-01
  3.70165044E-01 -5.29310012E-01 -2.02025428E-01  1.80255047E-01  9.28190639E-01
 -1.00717760E+00 -1.14984867E-01  2.80477070E-01 -1.87377196E-02  1.67892686E-01
  8.35365079E-02  4.07030577E-02  5.48671633E-17 -9.86149122E-17  5.22798038E-16
 -5.83670876E-16 -3.53330123E-01  5.57657424E-01  5.00494461E-01 -5.13533593E-01
  1.12220862E-01 -2.73697876E-02  4.35482442E-01 -4.33593750E-01 -8.76624338E-02
  1.12482573E-02 -4.87365415E-01  5.04675353E-01  3.73162256E-01 -5.64004997E-01
 -4.28187168E-01  4.32013021E-01 -4.43679812E-01  4.68381560E-01 -5.13832227E-01
  5.56222792E-01  1.97675663E-01 -3.41339517E-01  2.21496531E-01 -3.67759252E-01