Jobname.Temp
SP        RO                            6-31G(d)            
Number of atoms                            I               14
Charge                                     I                0
Multiplicity                               I               13
Number of electrons                        I               16
Number of alpha electrons                  I               14
Number of beta electrons                   I                2
Atomic numbers                             I   N=          14
           1           1           1           1           1           1
           1           1           1           1           1           1
           2           2
Current cartesian coordinates              R   N=          42
 -1.39563833E+00 -1.02168043E+00  1.62062912E-01 -4.37169242E+00 -1.92275854E+00
 -1.26643776E+00 -3.96052581E+00  1.23869658E+00 -2.16562614E-02 -4.17712622E+00
 -1.42555270E+00  2.11639877E+00  2.79063416E+00  7.50604886E+00  1.85722284E-01
  3.18418852E-01  8.61756687E+00  2.27798925E+00  3.45574216E-01  5.35699562E+00
  1.24094535E+00 -4.09806007E-01  7.85234117E+00 -9.77800989E-01  6.59230959E+00
 -1.65451191E+00 -1.14970937E-01  4.33973715E+00  9.17991157E-01 -3.60937690E-03
  3.66531279E+00 -2.01588424E+00  1.62501329E+00  3.62048849E+00 -1.90796198E+00
 -1.79565556E+00  1.88972612E+01  1.88972612E+01  1.88972612E+01 -1.88972612E+01
  1.88972612E+01  1.88972612E+01
Nuclear charges                            R   N=          14
  1.00000000E+00  1.00000000E+00  1.00000000E+00  1.00000000E+00  1.00000000E+00
  1.00000000E+00  1.00000000E+00  1.00000000E+00  1.00000000E+00  1.00000000E+00
  1.00000000E+00  1.00000000E+00  2.00000000E+00  2.00000000E+00
Number of basis functions                  I               28
Number of contracted shells                I               28
Number of primitive shells                 I               56
Highest angular momentum                   I                0
Largest degree of contraction              I                3
Shell types                                I   N=          28
           0           0           0           0           0           0
           0           0           0           0           0           0
           0           0           0           0           0           0
           0           0           0           0           0           0
           0           0           0           0
Number of primitives per shell             I   N=          28
           3           1           3           1           3           1
           3           1           3           1           3           1
           3           1           3           1           3           1
           3           1           3           1           3           1
           3           1           3           1
Shell to atom map                          I   N=          28
           1           1           2           2           3           3
           4           4           5           5           6           6
           7           7           8           8           9           9
          10          10          11          11          12          12
          13          13          14          14
Primitive exponents                        R   N=          56
  1.87311370E+01  2.82539370E+00  6.40121700E-01  1.61277800E-01  1.87311370E+01
  2.82539370E+00  6.40121700E-01  1.61277800E-01  1.87311370E+01  2.82539370E+00
  6.40121700E-01  1.61277800E-01  1.87311370E+01  2.82539370E+00  6.40121700E-01
  1.61277800E-01  1.87311370E+01  2.82539370E+00  6.40121700E-01  1.61277800E-01
  1.87311370E+01  2.82539370E+00  6.40121700E-01  1.61277800E-01  1.87311370E+01
  2.82539370E+00  6.40121700E-01  1.61277800E-01  1.87311370E+01  2.82539370E+00
  6.40121700E-01  1.61277800E-01  1.87311370E+01  2.82539370E+00  6.40121700E-01
  1.61277800E-01  1.87311370E+01  2.82539370E+00  6.40121700E-01  1.61277800E-01
  1.87311370E+01  2.82539370E+00  6.40121700E-01  1.61277800E-01  1.87311370E+01
  2.82539370E+00  6.40121700E-01  1.61277800E-01  3.84216340E+01  5.77803000E+00
  1.24177400E+00  2.97964000E-01  3.84216340E+01  5.77803000E+00  1.24177400E+00
  2.97964000E-01
Contraction coefficients                   R   N=          56
  3.34945995E-02  2.34726947E-01  8.13757318E-01  1.00000000E+00  3.34945995E-02
  2.34726947E-01  8.13757318E-01  1.00000000E+00  3.34945995E-02  2.34726947E-01
  8.13757318E-01  1.00000000E+00  3.34945995E-02  2.34726947E-01  8.13757318E-01
  1.00000000E+00  3.34945995E-02  2.34726947E-01  8.13757318E-01  1.00000000E+00
  3.34945995E-02  2.34726947E-01  8.13757318E-01  1.00000000E+00  3.34945995E-02
  2.34726947E-01  8.13757318E-01  1.00000000E+00  3.34945995E-02  2.34726947E-01
  8.13757318E-01  1.00000000E+00  3.34945995E-02  2.34726947E-01  8.13757318E-01
  1.00000000E+00  3.34945995E-02  2.34726947E-01  8.13757318E-01  1.00000000E+00
  3.34945995E-02  2.34726947E-01  8.13757318E-01  1.00000000E+00  3.34945995E-02
  2.34726947E-01  8.13757318E-01  1.00000000E+00  4.01397393E-02  2.61246097E-01
  7.93184625E-01  1.00000000E+00  4.01397393E-02  2.61246097E-01  7.93184625E-01
  1.00000000E+00
Coordinates of each shell                  R   N=          84
 -1.39563833E+00 -1.02168043E+00  1.62062912E-01 -1.39563833E+00 -1.02168043E+00
  1.62062912E-01 -4.37169242E+00 -1.92275854E+00 -1.26643776E+00 -4.37169242E+00
 -1.92275854E+00 -1.26643776E+00 -3.96052581E+00  1.23869658E+00 -2.16562614E-02
 -3.96052581E+00  1.23869658E+00 -2.16562614E-02 -4.17712622E+00 -1.42555270E+00
  2.11639877E+00 -4.17712622E+00 -1.42555270E+00  2.11639877E+00  2.79063416E+00
  7.50604886E+00  1.85722284E-01  2.79063416E+00  7.50604886E+00  1.85722284E-01
  3.18418852E-01  8.61756687E+00  2.27798925E+00  3.18418852E-01  8.61756687E+00
  2.27798925E+00  3.45574216E-01  5.35699562E+00  1.24094535E+00  3.45574216E-01
  5.35699562E+00  1.24094535E+00 -4.09806007E-01  7.85234117E+00 -9.77800989E-01
 -4.09806007E-01  7.85234117E+00 -9.77800989E-01  6.59230959E+00 -1.65451191E+00
 -1.14970937E-01  6.59230959E+00 -1.65451191E+00 -1.14970937E-01  4.33973715E+00
  9.17991157E-01 -3.60937690E-03  4.33973715E+00  9.17991157E-01 -3.60937690E-03
  3.66531279E+00 -2.01588424E+00  1.62501329E+00  3.66531279E+00 -2.01588424E+00
  1.62501329E+00  3.62048849E+00 -1.90796198E+00 -1.79565556E+00  3.62048849E+00
 -1.90796198E+00 -1.79565556E+00  1.88972612E+01  1.88972612E+01  1.88972612E+01
  1.88972612E+01  1.88972612E+01  1.88972612E+01 -1.88972612E+01  1.88972612E+01
  1.88972612E+01 -1.88972612E+01  1.88972612E+01  1.88972612E+01
SCF Energy                                 R     -1.147172550985902E+01
Number of independent functions            I               28
Alpha MO coefficients                      R   N=         784
  4.10643319E-22  4.68078510E-22  2.74394181E-22 -4.15673118E-22 -1.05705732E-21
  7.98917995E-22 -2.65073824E-23 -1.21943967E-22 -7.08469589E-22  1.88763345E-21
  4.45741355E-22 -9.78757603E-22  2.40142269E-22 -2.81126220E-22  3.22574321E-22
 -9.15863480E-22  9.10055753E-22 -1.36988306E-21  1.23777248E-21 -1.47644366E-21
 -1.49353757E-21  2.21290777E-21  5.36199603E-22 -3.03072244E-22 -5.92081261E-01
 -5.13586011E-01 -5.90571554E-21  6.09715209E-21  1.71091150E-16  2.50457448E-17
  1.36243832E-16  3.25125137E-16  6.16713049E-17  1.18072862E-16 -9.02098307E-17
 -5.56646610E-17  2.52963018E-16  4.75963509E-17 -1.10015264E-16  1.86118223E-16
  2.97874145E-16  1.39345160E-16 -4.60651167E-17 -1.75807293E-16  1.39471495E-16
 -7.91898846E-17 -8.64544755E-18  1.64687988E-16 -3.06044693E-17 -8.23680698E-17
  2.75829159E-16  3.15666161E-16 -8.08996455E-17  8.35128179E-17 -5.92081261E-01
 -5.13586011E-01  1.64835458E-02  9.03136415E-02 -4.43561311E-01 -7.24326982E-01
  1.61792437E-02  8.99316481E-02  1.60297138E-02  8.97736762E-02  5.84294317E-04
 -2.14050900E-04  5.09673715E-04 -1.45367644E-04 -3.55621674E-03 -1.45420953E-04
 -2.35524318E-04  2.31724982E-04  9.61799103E-04  5.72614422E-04 -1.35576353E-03
  1.69276591E-04 -2.52070372E-03 -1.86966458E-03 -4.91014698E-04 -2.07296902E-03
 -2.23334992E-17 -1.93726428E-17  2.06325194E-16  1.78971604E-16 -8.57859527E-04
 -2.75961671E-05  2.50258000E-05  1.14298940E-04  1.31179567E-03 -9.22774734E-04
 -2.92099702E-04  3.34440844E-04  1.61501698E-02  8.99351251E-02  1.60562842E-02
  9.00422943E-02  1.61408440E-02  8.98966493E-02 -4.43532702E-01 -7.24299351E-01
  4.02103593E-04 -6.09629803E-05 -2.42352025E-03 -5.06660826E-04  4.20239070E-05
  1.36535139E-04  3.14900961E-04 -3.06906357E-05 -1.94365061E-18 -1.68594528E-18
 -2.19022671E-16 -1.89985712E-16  7.54118314E-03  4.12479631E-03 -8.13165124E-04
 -4.69619392E-04 -7.97936456E-04 -4.48756417E-04 -7.69002538E-04 -4.77715771E-04
  9.32340187E-04 -1.35908322E-04 -5.33260763E-04  1.58796676E-04  2.38035404E-03
  2.49143836E-04 -3.34020597E-04  1.37619871E-05  4.43809293E-01  7.24054981E-01
 -1.64019600E-02 -9.00458767E-02 -1.67804845E-02 -8.97531203E-02 -1.66938306E-02
 -8.98355749E-02 -9.36999922E-18 -8.12777114E-18 -5.90934357E-17 -5.12591157E-17
  7.98528584E-03  1.71145060E-02  4.73871828E-04 -3.06043022E-03 -8.36314023E-04
 -2.52016673E-03 -1.66620621E-03 -2.11326748E-03 -9.38433190E-04  1.52249635E-04
  3.77644506E-04 -2.97884538E-05 -1.46209092E-03 -6.15589089E-04  3.07644436E-04
  1.09378276E-05  1.62876279E-02  8.97206997E-02  1.58235170E-02  9.00764748E-02
  1.53289897E-02  8.98916607E-02 -4.43875637E-01 -7.24816476E-01  7.11843762E-17
  6.17471174E-17  1.44103301E-16  1.24998787E-16  1.62502423E-02  9.01918941E-02
  1.61378695E-02  8.99554325E-02 -4.43838726E-01 -7.24311007E-01  1.60580391E-02
  8.99990758E-02 -1.55369878E-03 -7.41969030E-04 -1.00573459E-03 -1.09673032E-03
  7.58121420E-03  7.90508588E-03  2.09004694E-03 -1.58509244E-03  9.50341756E-04
  5.77988108E-04 -7.42507926E-05 -2.71643170E-04 -2.36485830E-03 -1.89873565E-03
 -1.79356620E-03 -1.66921874E-03  2.15540311E-17  1.86964948E-17  1.36509672E-16
  1.18411884E-16 -3.12651754E-03 -4.02454601E-03  7.80526667E-04  3.99449303E-04
 -4.72954393E-04  1.01064429E-03  6.47372489E-04  4.88956105E-04 -4.97946876E-03
 -3.12782867E-04  2.07075744E-03  8.42328380E-04 -8.16951936E-03 -7.20967252E-03
  1.18542283E-03  1.27569492E-03 -1.61697119E-02 -9.01614916E-02  4.43804381E-01
  7.24446710E-01 -1.58455983E-02 -9.00143298E-02 -1.59343179E-02 -8.99417210E-02
 -4.84855509E-17 -4.20575900E-17 -8.10846753E-17 -7.03348639E-17  1.64092854E-02
  9.01973225E-02  1.60319470E-02  8.97457625E-02  1.61249402E-02  8.99856479E-02
 -4.43507326E-01 -7.24316497E-01  3.50614465E-04 -4.96705324E-05  3.31833250E-04
 -3.51605837E-05 -1.90505602E-03 -7.25987243E-04 -4.67619378E-04  3.84083813E-04
  9.29058671E-04  5.71379070E-04 -1.21160506E-03  1.23786599E-04 -3.75394115E-04
 -2.52290350E-03 -2.62759218E-03 -1.33053143E-03 -4.42523440E-18 -3.83854443E-18
 -5.81290910E-17 -5.04226192E-17  1.17775285E-03 -2.10479465E-04 -5.34585272E-04
  1.45780877E-04  2.01005355E-03  4.41005879E-04 -2.68943910E-04 -2.17660415E-05
 -1.61150726E-02 -8.97619426E-02  4.43562508E-01  7.24273502E-01 -1.62893500E-02
 -8.99750944E-02 -1.60595433E-02 -9.00662623E-02 -5.45446253E-04  1.69178639E-04
  3.34985553E-03  1.46979852E-04 -1.76844092E-04 -2.29604305E-05 -3.33921475E-04
  4.87554992E-05 -7.60966128E-17 -6.60080955E-17 -1.16036048E-16 -1.00652554E-16
  8.73470885E-03  2.01777019E-02 -1.48097329E-03 -2.73870441E-03 -1.34359349E-03
 -2.73098482E-03  6.40119001E-04 -3.53171693E-03 -1.09675062E-03  2.35770107E-04
  2.72832406E-04  1.87331400E-05 -4.05155780E-04 -9.30004322E-04  8.72097377E-05
  1.56897951E-04  1.63360417E-02  8.95569745E-02  1.57161332E-02  9.01820155E-02
 -4.44013174E-01 -7.24949604E-01  1.53058529E-02  8.99315425E-02 -2.69907950E-17
 -2.34124716E-17  3.62125431E-17  3.14116604E-17 -8.73806585E-04  3.11276912E-05
  5.92682113E-04 -1.99620497E-04 -2.57172275E-03 -1.60744975E-04  2.70398922E-04
  1.51499617E-05 -4.43602904E-01 -7.24244355E-01  1.61204184E-02  8.97570510E-02
  1.59762984E-02  9.01892330E-02  1.61413524E-02  8.99325679E-02 -4.41123033E-04
 -1.64966700E-04  4.13611006E-03  1.19817671E-03 -7.12341400E-04  5.20897593E-06
 -5.03676234E-04 -1.16484909E-04 -1.12584391E-16 -9.76584958E-17  2.32050057E-17
  2.01285990E-17 -4.97111443E-03 -8.52984984E-04  2.22052564E-03  8.76762799E-04
 -7.90408777E-03 -7.35464306E-03  6.38001226E-04  1.60209668E-03 -1.58836035E-02
 -9.02396133E-02 -1.62005837E-02 -9.00245822E-02  4.44211338E-01  7.24207669E-01
 -1.60266029E-02 -8.98817837E-02  1.47978112E-03  7.76774701E-04 -7.74179016E-03
 -7.84929949E-03 -3.89080954E-04  1.45989034E-03  6.17208627E-04  1.13582045E-03
 -1.35569021E-17 -1.17595795E-17  2.05109068E-18  1.77916707E-18  4.45029057E-01
  7.25039427E-01 -1.60843410E-02 -9.01514154E-02 -1.59069134E-02 -8.99689916E-02
 -1.59969815E-02 -9.00573918E-02  3.54246663E-04  3.16959574E-04  6.72819572E-04
  7.51815281E-05 -4.08137523E-03 -1.79209661E-03  5.88364071E-04  2.17550837E-04
  4.91426485E-03  6.05962227E-03 -4.96289042E-03 -1.56865531E-03 -9.86639768E-03
 -1.71216977E-02 -9.23467974E-03 -1.41831597E-02  2.05730844E-17  1.78456220E-17
 -1.19593695E-16 -1.03738545E-16 -6.15240869E-01  6.38693605E-01  2.93772628E-01
 -3.71899980E-01 -2.05776653E-01  1.86484093E-01  2.23490539E-01 -2.91746886E-01
 -7.44893308E-03 -2.56422844E-02  2.35193133E-01 -2.99470060E-01 -6.20563362E-01
  6.60170859E-01  1.48475791E-01 -2.00587878E-01  4.52612806E-01 -5.62624172E-01
 -4.97750047E-01  4.97875262E-01 -2.14269007E-01  1.66506482E-01 -1.60942587E-01
  1.09534564E-01  7.72729706E-16 -7.97768239E-16  4.21168832E-17  1.35975852E-16
  5.41913337E-01 -5.97604564E-01  5.48802625E-02 -6.62699657E-02 -5.79101922E-01
  6.58048260E-01 -1.44564441E-02  1.37749293E-02 -3.19763019E-02  9.06924541E-03
  2.43639059E-01 -3.07048305E-01 -4.55307741E-01  4.86125658E-01  4.58431636E-02
 -7.89644919E-02 -3.32518729E-01  4.06194056E-01 -3.62764722E-01  4.43474158E-01
  4.48323920E-01 -4.67427701E-01  4.60879420E-01 -4.85292295E-01  2.86252366E-17
 -5.76227226E-17 -9.81931026E-16  8.66302463E-16  3.23122012E-02 -1.52011417E-02
 -2.46168320E-01  3.02947262E-01  5.20455572E-01 -5.92152908E-01 -1.95393385E-01
  2.43408858E-01 -8.03685367E-01  9.33763451E-01  1.44636695E-01 -1.74730072E-01
  1.78858000E-01 -2.14910130E-01  4.40567820E-01 -5.21421180E-01  1.28026137E-01
 -1.57983433E-01 -5.12179069E-01  5.91844952E-01  1.66746444E-01 -2.02415040E-01
  1.64363281E-01 -1.99723202E-01 -3.51397645E-16  3.69317485E-16  6.93727037E-16
 -7.35176110E-16  8.23957017E-03 -1.27167094E-02  5.78121554E-01 -6.82731830E-01
  8.85132729E-02 -1.05195651E-01 -6.78909644E-01  8.01566370E-01  5.15124732E-02
 -5.83234154E-02 -1.12429818E-01  1.35116666E-01 -3.42852377E-02  4.50468375E-02
  1.13628597E-01 -1.31862232E-01 -4.15344520E-02  5.00278207E-02  3.58137065E-02
 -4.16394618E-02 -6.16561614E-01  7.29282172E-01  6.29060631E-01 -7.41409021E-01
  6.01519292E-17 -4.17532096E-17 -5.99940449E-17 -2.96871777E-17  1.90439927E-02
 -2.06892433E-02 -7.01868880E-02  8.25274682E-02 -3.35608399E-02  3.58287089E-02
  7.88031508E-02 -9.42970817E-02  2.47784525E-01 -2.94923060E-01 -8.77740683E-01
  1.04144637E+00 -2.14144040E-01  2.52593412E-01  8.37650734E-01 -9.95552269E-01
 -6.22185108E-02  7.43138329E-02 -1.10982123E-02  1.14163161E-02  1.33858925E-01
 -1.57464160E-01 -5.78003808E-02  6.98927951E-02  4.40989123E-16 -5.52299241E-16
 -1.32254515E-16  2.05722075E-16 -9.69966368E-03  7.54686563E-03 -6.28992970E-01
  7.49441085E-01 -1.27242367E-02  1.36249978E-02  6.40606529E-01 -7.65513675E-01
  2.96688094E-02 -3.55768465E-02 -1.16199890E-02  1.37300304E-02 -2.19911782E-02
  2.56390336E-02  2.54916416E-03 -3.18272193E-03 -2.61876678E-02  3.09739508E-02
 -1.00641408E-02  1.12941307E-02 -6.21703924E-01  7.41118648E-01  6.54647771E-01
 -7.81769189E-01 -3.77075912E-16  3.69550274E-16 -3.13355246E-17  1.77967300E-17
  3.76969402E-02 -6.90006801E-02 -3.83722349E-01  4.32947194E-01  4.92256089E-01
 -6.27648902E-01 -3.45936325E-01  3.87328860E-01  6.84769780E-01 -8.39779192E-01
 -1.64806520E-01  1.87721749E-01 -1.81283814E-01  2.08152165E-01 -4.13990122E-01
  4.88991969E-01  2.80394450E-01 -3.15953339E-01 -5.20635803E-01  6.52490676E-01
  2.32877348E-01 -2.55411636E-01  1.65974503E-01 -1.75042770E-01  7.56755350E-16
 -7.18247707E-16  3.44566522E-17 -3.14476975E-17 -3.63755728E-01  4.26059122E-01
 -1.62788617E-01  1.74059463E-01  4.68832584E-01 -6.04510642E-01 -1.05637090E-01
  1.04521878E-01  2.06560738E-01 -1.81746885E-01  4.42812055E-01 -4.71196177E-01
 -4.30539810E-01  6.05347844E-01  2.50573837E-01 -2.36310869E-01 -8.68505440E-01
  9.42918237E-01  1.79112220E-01 -3.48592904E-01 -1.36679550E-02 -1.17198828E-01
 -1.11626965E-01  4.37102608E-03  2.03969422E-15 -2.16476124E-15 -6.74454152E-16
  4.07092355E-16 -3.98116211E-01  6.05646013E-01  4.87427050E-01 -5.03364454E-01
  1.28055308E-01 -5.53981936E-02  4.33103126E-01 -4.36630908E-01 -7.98191523E-02
  1.95680424E-02 -4.17329661E-01  4.35052123E-01  3.56680234E-01 -5.22746259E-01
 -3.74259267E-01  3.82236087E-01 -5.58838793E-01  5.93537877E-01 -4.96894920E-01
  5.16130680E-01  1.99342727E-01 -3.60492866E-01  2.09565526E-01 -3.69935150E-01
  8.52737978E-16 -9.06107005E-16 -2.49787551E-16  2.60043094E-16 -2.67496543E-01
  3.99519141E-02 -5.34874405E-01  3.94438777E-01 -4.80465667E-01  3.24913670E-01
 -5.32098339E-01  3.90853348E-01 -4.47729705E-01  3.26092790E-01 -4.55692357E-01
  3.36439742E-01 -2.21781564E-01  3.53340405E-02 -4.10391962E-01  2.78991652E-01
 -3.22904367E-01  2.42516619E-01 -1.66599067E-01  4.24303721E-02 -2.86539278E-01
  1.94439151E-01 -2.87626581E-01  1.96107695E-01 -7.93099705E-16  8.17589710E-16
 -1.23791351E-15  1.24634920E-15  2.58830433E-01 -1.30574881E-01  2.22672943E-01
 -8.77948652E-02  5.11544637E-01 -4.69221015E-01  2.48902669E-01 -1.21499837E-01
 -4.81384040E-01  2.87530568E-01 -3.78150439E-01  1.53072939E-01 -7.82187094E-01
  6.86355405E-01 -4.37438384E-01  2.29635671E-01  1.37744872E-01 -5.52350722E-02
  4.30982493E-01 -4.41370615E-01  1.08485519E-01 -1.20273286E-02  8.95899566E-02
  1.15991960E-02 -1.24701276E-15  1.30101251E-15  1.10550279E-15 -1.34698246E-15
  7.69057247E-01 -8.22955153E-01  1.88207072E-01 -1.83769002E-02  2.10224519E-01
 -4.80124416E-02  1.93959115E-01 -2.60712569E-02  7.70665206E-02 -9.41868563E-02
  6.75158203E-03 -1.33333169E-03 -3.71576169E-02  5.56509474E-02 -1.70052847E-03
  9.68294838E-03 -2.47802126E-01 -2.11196492E-02 -5.19187938E-01  3.43547883E-01
 -6.58479573E-01  5.46910048E-01 -6.41076658E-01  5.20154351E-01  4.02639646E-15
 -4.13929560E-15  2.45656840E-15 -2.46699978E-15 -1.24608901E-15  1.06992523E-15
 -1.34378792E-15  7.34130928E-16 -1.95469419E-15  1.62966106E-15 -9.80138537E-16
  3.06101576E-16 -2.84883699E-15  2.93331385E-15 -7.04514109E-16  4.06895522E-16
  7.89598743E-16 -1.42818200E-15 -8.94838212E-16  5.41729378E-16  3.04069812E-15
 -2.09121411E-15  3.48832599E-15 -2.59969074E-15  2.17878523E-15 -1.02026430E-15
  2.55559720E-15 -1.57728787E-15  1.14981805E+00 -1.18695880E+00  3.14534159E-10
 -3.24693851E-10  2.30389281E-15 -2.01572942E-15  1.10209569E-15 -2.71622968E-16
  2.62101534E-15 -2.12973205E-15  1.20945451E-15 -4.02848627E-16 -6.17870193E-16
  7.20931892E-16 -3.38676486E-17 -1.28760713E-16  1.39539149E-16 -6.98910807E-17
  7.63130221E-17 -1.15314083E-16  1.19558155E-15 -1.71796918E-15 -4.66097551E-16
  2.75496907E-16 -1.50363000E-15  1.51932123E-15 -1.44143272E-15  1.52876523E-15
  3.14535388E-10 -3.24695364E-10 -1.14981805E+00  1.18695880E+00
Beta MO coefficients                       R   N=         784
  4.10643319E-22  4.68078510E-22  2.74394181E-22 -4.15673118E-22 -1.05705732E-21
  7.98917995E-22 -2.65073824E-23 -1.21943967E-22 -7.08469589E-22  1.88763345E-21
  4.45741355E-22 -9.78757603E-22  2.40142269E-22 -2.81126220E-22  3.22574321E-22
 -9.15863480E-22  9.10055753E-22 -1.36988306E-21  1.23777248E-21 -1.47644366E-21
 -1.49353757E-21  2.21290777E-21  5.36199603E-22 -3.03072244E-22 -5.92081261E-01
 -5.13586011E-01 -5.90571554E-21  6.09715209E-21  1.71091150E-16  2.50457448E-17
  1.36243832E-16  3.25125137E-16  6.16713049E-17  1.18072862E-16 -9.02098307E-17
 -5.56646610E-17  2.52963018E-16  4.75963509E-17 -1.10015264E-16  1.86118223E-16
  2.97874145E-16  1.39345160E-16 -4.60651167E-17 -1.75807293E-16  1.39471495E-16
 -7.91898846E-17 -8.64544755E-18  1.64687988E-16 -3.06044693E-17 -8.23680698E-17
  2.75829159E-16  3.15666161E-16 -8.08996455E-17  8.35128179E-17 -5.92081261E-01
 -5.13586011E-01  1.64835458E-02  9.03136415E-02 -4.43561311E-01 -7.24326982E-01
  1.61792437E-02  8.99316481E-02  1.60297138E-02  8.97736762E-02  5.84294317E-04
 -2.14050900E-04  5.09673715E-04 -1.45367644E-04 -3.55621674E-03 -1.45420953E-04
 -2.35524318E-04  2.31724982E-04  9.61799103E-04  5.72614422E-04 -1.35576353E-03
  1.69276591E-04 -2.52070372E-03 -1.86966458E-03 -4.91014698E-04 -2.07296902E-03
 -2.23334992E-17 -1.93726428E-17  2.06325194E-16  1.78971604E-16 -8.57859527E-04
 -2.75961671E-05  2.50258000E-05  1.14298940E-04  1.31179567E-03 -9.22774734E-04
 -2.92099702E-04  3.34440844E-04  1.61501698E-02  8.99351251E-02  1.60562842E-02
  9.00422943E-02  1.61408440E-02  8.98966493E-02 -4.43532702E-01 -7.24299351E-01
  4.02103593E-04 -6.09629803E-05 -2.42352025E-03 -5.06660826E-04  4.20239070E-05
  1.36535139E-04  3.14900961E-04 -3.06906357E-05 -1.94365061E-18 -1.68594528E-18
 -2.19022671E-16 -1.89985712E-16  7.54118314E-03  4.12479631E-03 -8.13165124E-04
 -4.69619392E-04 -7.97936456E-04 -4.48756417E-04 -7.69002538E-04 -4.77715771E-04
  9.32340187E-04 -1.35908322E-04 -5.33260763E-04  1.58796676E-04  2.38035404E-03
  2.49143836E-04 -3.34020597E-04  1.37619871E-05  4.43809293E-01  7.24054981E-01
 -1.64019600E-02 -9.00458767E-02 -1.67804845E-02 -8.97531203E-02 -1.66938306E-02
 -8.98355749E-02 -9.36999922E-18 -8.12777114E-18 -5.90934357E-17 -5.12591157E-17
  7.98528584E-03  1.71145060E-02  4.73871828E-04 -3.06043022E-03 -8.36314023E-04
 -2.52016673E-03 -1.66620621E-03 -2.11326748E-03 -9.38433190E-04  1.52249635E-04
  3.77644506E-04 -2.97884538E-05 -1.46209092E-03 -6.15589089E-04  3.07644436E-04
  1.09378276E-05  1.62876279E-02  8.97206997E-02  1.58235170E-02  9.00764748E-02
  1.53289897E-02  8.98916607E-02 -4.43875637E-01 -7.24816476E-01  7.11843762E-17
  6.17471174E-17  1.44103301E-16  1.24998787E-16  1.62502423E-02  9.01918941E-02
  1.61378695E-02  8.99554325E-02 -4.43838726E-01 -7.24311007E-01  1.60580391E-02
  8.99990758E-02 -1.55369878E-03 -7.41969030E-04 -1.00573459E-03 -1.09673032E-03
  7.58121420E-03  7.90508588E-03  2.09004694E-03 -1.58509244E-03  9.50341756E-04
  5.77988108E-04 -7.42507926E-05 -2.71643170E-04 -2.36485830E-03 -1.89873565E-03
 -1.79356620E-03 -1.66921874E-03  2.15540311E-17  1.86964948E-17  1.36509672E-16
  1.18411884E-16 -3.12651754E-03 -4.02454601E-03  7.80526667E-04  3.99449303E-04
 -4.72954393E-04  1.01064429E-03  6.47372489E-04  4.88956105E-04 -4.97946876E-03
 -3.12782867E-04  2.07075744E-03  8.42328380E-04 -8.16951936E-03 -7.20967252E-03
  1.18542283E-03  1.27569492E-03 -1.61697119E-02 -9.01614916E-02  4.43804381E-01
  7.24446710E-01 -1.58455983E-02 -9.00143298E-02 -1.59343179E-02 -8.99417210E-02
 -4.84855509E-17 -4.20575900E-17 -8.10846753E-17 -7.03348639E-17  1.64092854E-02
  9.01973225E-02  1.60319470E-02  8.97457625E-02  1.61249402E-02  8.99856479E-02
 -4.43507326E-01 -7.24316497E-01  3.50614465E-04 -4.96705324E-05  3.31833250E-04
 -3.51605837E-05 -1.90505602E-03 -7.25987243E-04 -4.67619378E-04  3.84083813E-04
  9.29058671E-04  5.71379070E-04 -1.21160506E-03  1.23786599E-04 -3.75394115E-04
 -2.52290350E-03 -2.62759218E-03 -1.33053143E-03 -4.42523440E-18 -3.83854443E-18
 -5.81290910E-17 -5.04226192E-17  1.17775285E-03 -2.10479465E-04 -5.34585272E-04
  1.45780877E-04  2.01005355E-03  4.41005879E-04 -2.68943910E-04 -2.17660415E-05
 -1.61150726E-02 -8.97619426E-02  4.43562508E-01  7.24273502E-01 -1.62893500E-02
 -8.99750944E-02 -1.60595433E-02 -9.00662623E-02 -5.45446253E-04  1.69178639E-04
  3.34985553E-03  1.46979852E-04 -1.76844092E-04 -2.29604305E-05 -3.33921475E-04
  4.87554992E-05 -7.60966128E-17 -6.60080955E-17 -1.16036048E-16 -1.00652554E-16
  8.73470885E-03  2.01777019E-02 -1.48097329E-03 -2.73870441E-03 -1.34359349E-03
 -2.73098482E-03  6.40119001E-04 -3.53171693E-03 -1.09675062E-03  2.35770107E-04
  2.72832406E-04  1.87331400E-05 -4.05155780E-04 -9.30004322E-04  8.72097377E-05
  1.56897951E-04  1.63360417E-02  8.95569745E-02  1.57161332E-02  9.01820155E-02
 -4.44013174E-01 -7.24949604E-01  1.53058529E-02  8.99315425E-02 -2.69907950E-17
 -2.34124716E-17  3.62125431E-17  3.14116604E-17 -8.73806585E-04  3.11276912E-05
  5.92682113E-04 -1.99620497E-04 -2.57172275E-03 -1.60744975E-04  2.70398922E-04
  1.51499617E-05 -4.43602904E-01 -7.24244355E-01  1.61204184E-02  8.97570510E-02
  1.59762984E-02  9.01892330E-02  1.61413524E-02  8.99325679E-02 -4.41123033E-04
 -1.64966700E-04  4.13611006E-03  1.19817671E-03 -7.12341400E-04  5.20897593E-06
 -5.03676234E-04 -1.16484909E-04 -1.12584391E-16 -9.76584958E-17  2.32050057E-17
  2.01285990E-17 -4.97111443E-03 -8.52984984E-04  2.22052564E-03  8.76762799E-04
 -7.90408777E-03 -7.35464306E-03  6.38001226E-04  1.60209668E-03 -1.58836035E-02
 -9.02396133E-02 -1.62005837E-02 -9.00245822E-02  4.44211338E-01  7.24207669E-01
 -1.60266029E-02 -8.98817837E-02  1.47978112E-03  7.76774701E-04 -7.74179016E-03
 -7.84929949E-03 -3.89080954E-04  1.45989034E-03  6.17208627E-04  1.13582045E-03
 -1.35569021E-17 -1.17595795E-17  2.05109068E-18  1.77916707E-18  4.45029057E-01
  7.25039427E-01 -1.60843410E-02 -9.01514154E-02 -1.59069134E-02 -8.99689916E-02
 -1.59969815E-02 -9.00573918E-02  3.54246663E-04  3.16959574E-04  6.72819572E-04
  7.51815281E-05 -4.08137523E-03 -1.79209661E-03  5.88364071E-04  2.17550837E-04
  4.91426485E-03  6.05962227E-03 -4.96289042E-03 -1.56865531E-03 -9.86639768E-03
 -1.71216977E-02 -9.23467974E-03 -1.41831597E-02  2.05730844E-17  1.78456220E-17
 -1.19593695E-16 -1.03738545E-16 -6.15240869E-01  6.38693605E-01  2.93772628E-01
 -3.71899980E-01 -2.05776653E-01  1.86484093E-01  2.23490539E-01 -2.91746886E-01
 -7.44893308E-03 -2.56422844E-02  2.35193133E-01 -2.99470060E-01 -6.20563362E-01
  6.60170859E-01  1.48475791E-01 -2.00587878E-01  4.52612806E-01 -5.62624172E-01
 -4.97750047E-01  4.97875262E-01 -2.14269007E-01  1.66506482E-01 -1.60942587E-01
  1.09534564E-01  7.72729706E-16 -7.97768239E-16  4.21168832E-17  1.35975852E-16
  5.41913337E-01 -5.97604564E-01  5.48802625E-02 -6.62699657E-02 -5.79101922E-01
  6.58048260E-01 -1.44564441E-02  1.37749293E-02 -3.19763019E-02  9.06924541E-03
  2.43639059E-01 -3.07048305E-01 -4.55307741E-01  4.86125658E-01  4.58431636E-02
 -7.89644919E-02 -3.32518729E-01  4.06194056E-01 -3.62764722E-01  4.43474158E-01
  4.48323920E-01 -4.67427701E-01  4.60879420E-01 -4.85292295E-01  2.86252366E-17
 -5.76227226E-17 -9.81931026E-16  8.66302463E-16  3.23122012E-02 -1.52011417E-02
 -2.46168320E-01  3.02947262E-01  5.20455572E-01 -5.92152908E-01 -1.95393385E-01
  2.43408858E-01 -8.03685367E-01  9.33763451E-01  1.44636695E-01 -1.74730072E-01
  1.78858000E-01 -2.14910130E-01  4.40567820E-01 -5.21421180E-01  1.28026137E-01
 -1.57983433E-01 -5.12179069E-01  5.91844952E-01  1.66746444E-01 -2.02415040E-01
  1.64363281E-01 -1.99723202E-01 -3.51397645E-16  3.69317485E-16  6.93727037E-16
 -7.35176110E-16  8.23957017E-03 -1.27167094E-02  5.78121554E-01 -6.82731830E-01
  8.85132729E-02 -1.05195651E-01 -6.78909644E-01  8.01566370E-01  5.15124732E-02
 -5.83234154E-02 -1.12429818E-01  1.35116666E-01 -3.42852377E-02  4.50468375E-02
  1.13628597E-01 -1.31862232E-01 -4.15344520E-02  5.00278207E-02  3.58137065E-02
 -4.16394618E-02 -6.16561614E-01  7.29282172E-01  6.29060631E-01 -7.41409021E-01
  6.01519292E-17 -4.17532096E-17 -5.99940449E-17 -2.96871777E-17  1.90439927E-02
 -2.06892433E-02 -7.01868880E-02  8.25274682E-02 -3.35608399E-02  3.58287089E-02
  7.88031508E-02 -9.42970817E-02  2.47784525E-01 -2.94923060E-01 -8.77740683E-01
  1.04144637E+00 -2.14144040E-01  2.52593412E-01  8.37650734E-01 -9.95552269E-01
 -6.22185108E-02  7.43138329E-02 -1.10982123E-02  1.14163161E-02  1.33858925E-01
 -1.57464160E-01 -5.78003808E-02  6.98927951E-02  4.40989123E-16 -5.52299241E-16
 -1.32254515E-16  2.05722075E-16 -9.69966368E-03  7.54686563E-03 -6.28992970E-01
  7.49441085E-01 -1.27242367E-02  1.36249978E-02  6.40606529E-01 -7.65513675E-01
  2.96688094E-02 -3.55768465E-02 -1.16199890E-02  1.37300304E-02 -2.19911782E-02
  2.56390336E-02  2.54916416E-03 -3.18272193E-03 -2.61876678E-02  3.09739508E-02
 -1.00641408E-02  1.12941307E-02 -6.21703924E-01  7.41118648E-01  6.54647771E-01
 -7.81769189E-01 -3.77075912E-16  3.69550274E-16 -3.13355246E-17  1.77967300E-17
  3.76969402E-02 -6.90006801E-02 -3.83722349E-01  4.32947194E-01  4.92256089E-01
 -6.27648902E-01 -3.45936325E-01  3.87328860E-01  6.84769780E-01 -8.39779192E-01
 -1.64806520E-01  1.87721749E-01 -1.81283814E-01  2.08152165E-01 -4.13990122E-01
  4.88991969E-01  2.80394450E-01 -3.15953339E-01 -5.20635803E-01  6.52490676E-01
  2.32877348E-01 -2.55411636E-01  1.65974503E-01 -1.75042770E-01  7.56755350E-16
 -7.18247707E-16  3.44566522E-17 -3.14476975E-17 -3.63755728E-01  4.26059122E-01
 -1.62788617E-01  1.74059463E-01  4.68832584E-01 -6.04510642E-01 -1.05637090E-01
  1.04521878E-01  2.06560738E-01 -1.81746885E-01  4.42812055E-01 -4.71196177E-01
 -4.30539810E-01  6.05347844E-01  2.50573837E-01 -2.36310869E-01 -8.68505440E-01
  9.42918237E-01  1.79112220E-01 -3.48592904E-01 -1.36679550E-02 -1.17198828E-01
 -1.11626965E-01  4.37102608E-03  2.03969422E-15 -2.16476124E-15 -6.74454152E-16
  4.07092355E-16 -3.98116211E-01  6.05646013E-01  4.87427050E-01 -5.03364454E-01
  1.28055308E-01 -5.53981936E-02  4.33103126E-01 -4.36630908E-01 -7.98191523E-02
  1.95680424E-02 -4.17329661E-01  4.35052123E-01  3.56680234E-01 -5.22746259E-01
 -3.74259267E-01  3.82236087E-01 -5.58838793E-01  5.93537877E-01 -4.96894920E-01
  5.16130680E-01  1.99342727E-01 -3.60492866E-01  2.09565526E-01 -3.69935150E-01