Jobname.Temp
SP        RO                            6-31G(d)            
Number of atoms                            I               14
Charge                                     I                0
Multiplicity                               I               13
Number of electrons                        I               16
Number of alpha electrons                  I               14
Number of beta electrons                   I                2
Atomic numbers                             I   N=          14
           1           1           1           1           1           1
           1           1           1           1           1           1
           2           2
Current cartesian coordinates              R   N=          42
 -1.39563833E+00 -1.02168043E+00  1.62062912E-01 -4.37169242E+00 -1.92275854E+00
 -1.26643776E+00 -3.96052581E+00  1.23869658E+00 -2.16562614E-02 -4.17712622E+00
 -1.42555270E+00  2.11639877E+00  2.79063416E+00  7.69502147E+00  1.85722284E-01
  3.18418852E-01  8.80653948E+00  2.27798925E+00  3.45574216E-01  5.54596823E+00
  1.24094535E+00 -4.09806007E-01  8.04131379E+00 -9.77800989E-01  6.59230959E+00
 -1.65451191E+00 -1.14970937E-01  4.33973715E+00  9.17991157E-01 -3.60937690E-03
  3.66531279E+00 -2.01588424E+00  1.62501329E+00  3.62048849E+00 -1.90796198E+00
 -1.79565556E+00  1.88972612E+01  1.88972612E+01  1.88972612E+01 -1.88972612E+01
  1.88972612E+01  1.88972612E+01
Nuclear charges                            R   N=          14
  1.00000000E+00  1.00000000E+00  1.00000000E+00  1.00000000E+00  1.00000000E+00
  1.00000000E+00  1.00000000E+00  1.00000000E+00  1.00000000E+00  1.00000000E+00
  1.00000000E+00  1.00000000E+00  2.00000000E+00  2.00000000E+00
Number of basis functions                  I               28
Number of contracted shells                I               28
Number of primitive shells                 I               56
Highest angular momentum                   I                0
Largest degree of contraction              I                3
Shell types                                I   N=          28
           0           0           0           0           0           0
           0           0           0           0           0           0
           0           0           0           0           0           0
           0           0           0           0           0           0
           0           0           0           0
Number of primitives per shell             I   N=          28
           3           1           3           1           3           1
           3           1           3           1           3           1
           3           1           3           1           3           1
           3           1           3           1           3           1
           3           1           3           1
Shell to atom map                          I   N=          28
           1           1           2           2           3           3
           4           4           5           5           6           6
           7           7           8           8           9           9
          10          10          11          11          12          12
          13          13          14          14
Primitive exponents                        R   N=          56
  1.87311370E+01  2.82539370E+00  6.40121700E-01  1.61277800E-01  1.87311370E+01
  2.82539370E+00  6.40121700E-01  1.61277800E-01  1.87311370E+01  2.82539370E+00
  6.40121700E-01  1.61277800E-01  1.87311370E+01  2.82539370E+00  6.40121700E-01
  1.61277800E-01  1.87311370E+01  2.82539370E+00  6.40121700E-01  1.61277800E-01
  1.87311370E+01  2.82539370E+00  6.40121700E-01  1.61277800E-01  1.87311370E+01
  2.82539370E+00  6.40121700E-01  1.61277800E-01  1.87311370E+01  2.82539370E+00
  6.40121700E-01  1.61277800E-01  1.87311370E+01  2.82539370E+00  6.40121700E-01
  1.61277800E-01  1.87311370E+01  2.82539370E+00  6.40121700E-01  1.61277800E-01
  1.87311370E+01  2.82539370E+00  6.40121700E-01  1.61277800E-01  1.87311370E+01
  2.82539370E+00  6.40121700E-01  1.61277800E-01  3.84216340E+01  5.77803000E+00
  1.24177400E+00  2.97964000E-01  3.84216340E+01  5.77803000E+00  1.24177400E+00
  2.97964000E-01
Contraction coefficients                   R   N=          56
  3.34945995E-02  2.34726947E-01  8.13757318E-01  1.00000000E+00  3.34945995E-02
  2.34726947E-01  8.13757318E-01  1.00000000E+00  3.34945995E-02  2.34726947E-01
  8.13757318E-01  1.00000000E+00  3.34945995E-02  2.34726947E-01  8.13757318E-01
  1.00000000E+00  3.34945995E-02  2.34726947E-01  8.13757318E-01  1.00000000E+00
  3.34945995E-02  2.34726947E-01  8.13757318E-01  1.00000000E+00  3.34945995E-02
  2.34726947E-01  8.13757318E-01  1.00000000E+00  3.34945995E-02  2.34726947E-01
  8.13757318E-01  1.00000000E+00  3.34945995E-02  2.34726947E-01  8.13757318E-01
  1.00000000E+00  3.34945995E-02  2.34726947E-01  8.13757318E-01  1.00000000E+00
  3.34945995E-02  2.34726947E-01  8.13757318E-01  1.00000000E+00  3.34945995E-02
  2.34726947E-01  8.13757318E-01  1.00000000E+00  4.01397393E-02  2.61246097E-01
  7.93184625E-01  1.00000000E+00  4.01397393E-02  2.61246097E-01  7.93184625E-01
  1.00000000E+00
Coordinates of each shell                  R   N=          84
 -1.39563833E+00 -1.02168043E+00  1.62062912E-01 -1.39563833E+00 -1.02168043E+00
  1.62062912E-01 -4.37169242E+00 -1.92275854E+00 -1.26643776E+00 -4.37169242E+00
 -1.92275854E+00 -1.26643776E+00 -3.96052581E+00  1.23869658E+00 -2.16562614E-02
 -3.96052581E+00  1.23869658E+00 -2.16562614E-02 -4.17712622E+00 -1.42555270E+00
  2.11639877E+00 -4.17712622E+00 -1.42555270E+00  2.11639877E+00  2.79063416E+00
  7.69502147E+00  1.85722284E-01  2.79063416E+00  7.69502147E+00  1.85722284E-01
  3.18418852E-01  8.80653948E+00  2.27798925E+00  3.18418852E-01  8.80653948E+00
  2.27798925E+00  3.45574216E-01  5.54596823E+00  1.24094535E+00  3.45574216E-01
  5.54596823E+00  1.24094535E+00 -4.09806007E-01  8.04131379E+00 -9.77800989E-01
 -4.09806007E-01  8.04131379E+00 -9.77800989E-01  6.59230959E+00 -1.65451191E+00
 -1.14970937E-01  6.59230959E+00 -1.65451191E+00 -1.14970937E-01  4.33973715E+00
  9.17991157E-01 -3.60937690E-03  4.33973715E+00  9.17991157E-01 -3.60937690E-03
  3.66531279E+00 -2.01588424E+00  1.62501329E+00  3.66531279E+00 -2.01588424E+00
  1.62501329E+00  3.62048849E+00 -1.90796198E+00 -1.79565556E+00  3.62048849E+00
 -1.90796198E+00 -1.79565556E+00  1.88972612E+01  1.88972612E+01  1.88972612E+01
  1.88972612E+01  1.88972612E+01  1.88972612E+01 -1.88972612E+01  1.88972612E+01
  1.88972612E+01 -1.88972612E+01  1.88972612E+01  1.88972612E+01
SCF Energy                                 R     -1.147185401381189E+01
Number of independent functions            I               28
Alpha MO coefficients                      R   N=         784
 -2.48628655E-21  2.39158566E-21 -4.45289399E-21  5.80600206E-21 -6.75943690E-22
 -5.99130808E-22  3.89954506E-22 -1.32103283E-21  3.91421850E-21 -3.69950594E-21
 -3.47172907E-22  1.77380373E-21  6.42848237E-22  3.28312410E-22  5.02894451E-21
 -6.18532001E-21  1.89493620E-22 -1.84211561E-21  2.15020556E-21 -4.38953629E-21
 -3.00620359E-21  5.20782354E-21 -2.50136989E-21  3.24641016E-21 -5.92081261E-01
 -5.13586011E-01 -3.45362271E-21  3.56559106E-21  1.60007282E-16 -1.06796939E-17
  2.32192362E-16  1.91630614E-16 -7.63816008E-17  3.79673474E-16  7.17150124E-17
  4.48175201E-17 -2.09697428E-16 -8.41467486E-17 -3.98016894E-17 -3.70548934E-16
 -9.00920034E-17  1.23806917E-16  8.06431508E-17 -1.59134426E-17  1.06635575E-16
 -3.54151769E-18  2.12554056E-16 -8.94948312E-17  1.76717830E-16  1.92423011E-16
 -8.63590380E-17 -2.14376208E-17 -6.69021649E-21  6.90618276E-21 -5.92081261E-01
 -5.13586011E-01  1.64642736E-02  9.03276843E-02 -4.43554459E-01 -7.24335723E-01
  1.61470675E-02  8.99398086E-02  1.60345220E-02  8.97675853E-02  5.23927775E-04
 -2.30670303E-04  4.66593538E-04 -1.75015283E-04 -3.24448437E-03  9.57947293E-05
 -1.78836155E-04  1.82045791E-04  9.67159176E-04  5.65464188E-04 -1.38867040E-03
  1.92032712E-04 -2.51978522E-03 -1.87169118E-03 -4.87128813E-04 -2.07866271E-03
  6.93937987E-18  6.01939068E-18  1.52785995E-16  1.32530372E-16 -7.84096507E-04
  8.30894135E-05  4.14566738E-05  8.62224782E-05  1.02146174E-03 -8.70950957E-04
 -2.28264598E-04  2.81460131E-04  1.61339195E-02  8.99488474E-02  1.60638044E-02
  9.00364346E-02  1.61219188E-02  8.98818213E-02 -4.43533975E-01 -7.24296793E-01
  3.65165792E-04 -8.92464465E-05 -2.24576772E-03 -2.39796922E-04  6.54947108E-05
  7.88461036E-05  2.89274565E-04 -6.48812445E-05  1.04101622E-16  9.03003362E-17
 -5.37834868E-17 -4.66531340E-17 -7.55298502E-03 -4.11579547E-03  8.18562983E-04
  4.62082657E-04  7.76515329E-04  4.61827649E-04  7.71855073E-04  4.73233992E-04
 -8.07701373E-04  1.79932845E-04  4.78736772E-04 -1.83520618E-04 -2.17882027E-03
 -8.36748996E-05  3.07540172E-04 -5.39616927E-05 -4.43807387E-01 -7.24056463E-01
  1.63779030E-02  9.00514734E-02  1.67811988E-02  8.97528108E-02  1.66970503E-02
  8.98319038E-02 -2.55032962E-17 -2.21221934E-17  1.18330061E-16  1.02642437E-16
 -7.97622649E-03 -1.71200690E-02 -4.77720450E-04  3.06491912E-03  8.50399935E-04
  2.51517430E-03  1.66454101E-03  2.11527698E-03  8.21719005E-04 -2.01062366E-04
 -3.49268018E-04  7.27625546E-05  1.40037673E-03  4.13049286E-04 -2.80746326E-04
  2.81343079E-05 -1.62915002E-02 -8.97174977E-02 -1.58044245E-02 -9.00780538E-02
 -1.53305684E-02 -8.98903624E-02  4.43876442E-01  7.24814771E-01  4.21963117E-17
  3.66021302E-17 -3.49228223E-17 -3.02929246E-17 -1.62972758E-02 -9.01714382E-02
 -1.61274583E-02 -8.99695338E-02  4.43789953E-01  7.24286602E-01 -1.60594957E-02
 -8.99981622E-02  1.42539272E-03  5.15181087E-04  9.85023271E-04  8.16234771E-04
 -7.22734102E-03 -6.37521970E-03 -1.74732458E-03  1.46261659E-03 -9.37857124E-04
 -5.83113916E-04  6.44609406E-06  2.64507580E-04  2.36305479E-03  1.90362549E-03
  1.79999329E-03  1.66795716E-03  1.51311958E-17  1.31251755E-17 -1.09250555E-16
 -9.47666487E-17 -3.17239189E-03 -4.00597783E-03  8.00506765E-04  3.85780026E-04
 -5.45678582E-04  1.00969736E-03  6.55127017E-04  4.86188949E-04 -4.36377789E-03
  1.97947467E-04  1.89874568E-03  4.89191496E-04 -7.71593308E-03 -5.65089673E-03
  1.12497988E-03  9.02699547E-04 -1.61627080E-02 -9.01718716E-02  4.43716529E-01
  7.24451711E-01 -1.58513303E-02 -9.00104958E-02 -1.59299430E-02 -8.99492870E-02
 -1.89886141E-16 -1.64711961E-16 -1.56062254E-17 -1.35372280E-17 -1.63987731E-02
 -9.02004247E-02 -1.60376253E-02 -8.97411248E-02 -1.61070121E-02 -8.99826533E-02
  4.43508674E-01  7.24313306E-01 -3.23989450E-04  8.01596401E-05 -3.09014315E-04
  6.67760274E-05  1.81894328E-03  4.60719075E-04  3.76097785E-04 -3.21279193E-04
 -9.32410961E-04 -5.68162787E-04  1.23049225E-03 -1.30635300E-04  3.75505788E-04
  2.52250005E-03  2.62545902E-03  1.33243517E-03  4.20332274E-17  3.64606668E-17
 -3.34196451E-17 -2.89890313E-17 -1.01517626E-03  2.46261279E-04  4.86126106E-04
 -1.75659358E-04 -1.90260435E-03 -2.48950143E-04  2.53665081E-04 -1.98396299E-05
  1.61020776E-02  8.97724190E-02 -4.43556619E-01 -7.24280347E-01  1.62358929E-02
  8.99855564E-02  1.60646630E-02  9.00598282E-02  4.88914504E-04 -1.89225889E-04
 -3.05453626E-03  1.02849032E-04  1.78711218E-04 -1.90236747E-05  3.13949212E-04
 -8.89020855E-05 -2.18761232E-17 -1.89758933E-17 -1.94495140E-16 -1.68709921E-16
  8.73107358E-03  2.01773310E-02 -1.47946854E-03 -2.73844994E-03 -1.34793115E-03
 -2.73562118E-03  6.40295795E-04 -3.53048275E-03 -9.55554905E-04  2.81079528E-04
  2.57896840E-04 -2.09435997E-05 -5.04268958E-04 -7.27496146E-04  1.00965447E-04
  9.93996917E-05  1.63370270E-02  8.95574811E-02  1.57080712E-02  9.01740474E-02
 -4.44015614E-01 -7.24945676E-01  1.53074527E-02  8.99311290E-02 -2.59182340E-17
 -2.24821207E-17  3.33877909E-17  2.89614002E-17  7.64996019E-04 -9.67791155E-05
 -5.31172411E-04  2.20470445E-04  2.35319006E-03  1.00795528E-05 -2.55806049E-04
  2.81878952E-05  4.43583893E-01  7.24256599E-01 -1.61137407E-02 -8.97649777E-02
 -1.59965406E-02 -9.01765175E-02 -1.61312409E-02 -8.99467804E-02  3.80466332E-04
  6.81913658E-05 -3.58114026E-03 -5.71496567E-04  6.16593410E-04 -8.47910878E-05
  4.40594492E-04  2.56191376E-05  1.45634868E-17  1.26327306E-17  1.19005916E-16
  1.03228691E-16  4.38912272E-03  2.25804706E-04 -2.03248219E-03 -5.27915092E-04
  7.52215061E-03  5.90116535E-03 -6.64934851E-04 -1.21790008E-03  1.59298598E-02
  9.02192789E-02  1.61867522E-02  9.00453063E-02 -4.44078225E-01 -7.24176954E-01
  1.60414243E-02  8.98731901E-02 -1.35608112E-03 -5.49529682E-04  7.33526319E-03
  6.18937673E-03  2.26738846E-04 -1.18732580E-03 -6.27077537E-04 -8.61498446E-04
 -1.28883697E-16 -1.11796924E-16 -1.20771154E-16 -1.04759902E-16 -4.45012164E-01
 -7.25045237E-01  1.60737475E-02  9.01637453E-02  1.59467940E-02  8.99597443E-02
  1.59959077E-02  9.00596389E-02 -3.10690953E-04 -1.95343499E-04 -5.72677372E-04
  8.04301461E-06  3.56284450E-03  1.04930028E-03 -5.41972452E-04 -8.26586026E-05
 -4.92049547E-03 -6.05540963E-03  5.00011299E-03  1.56402711E-03  9.86659407E-03
  1.71199862E-02  9.22965307E-03  1.41865791E-02  3.71884071E-17  3.22581492E-17
 -5.37353016E-17 -4.66113370E-17 -6.43406345E-01  6.72217699E-01  2.93656406E-01
 -3.71708463E-01 -1.78653868E-01  1.59235337E-01  2.32508250E-01 -3.01768042E-01
  3.35779835E-03 -3.41076483E-02  2.17825230E-01 -2.77213776E-01 -5.84561780E-01
  6.27369503E-01  1.45960197E-01 -1.94995465E-01  4.78542249E-01 -5.94376435E-01
 -4.78954031E-01  4.78535615E-01 -2.37673406E-01  1.91095761E-01 -1.90142215E-01
  1.40746086E-01  6.60523733E-18 -5.39601848E-18 -1.52541864E-16  1.56737976E-16
 -5.09284067E-01  5.62602658E-01 -6.99719099E-02  8.55116545E-02  5.92682587E-01
 -6.72668005E-01 -3.87603418E-03  9.16524239E-03  6.83380598E-03  1.95909021E-02
 -2.47192264E-01  3.11424844E-01  5.05655055E-01 -5.45891285E-01 -6.85354600E-02
  1.05197121E-01  3.04679768E-01 -3.71728751E-01  3.78809127E-01 -4.60052605E-01
 -4.34556739E-01  4.55427705E-01 -4.43836852E-01  4.69343886E-01 -4.11414716E-16
  4.18273179E-16 -8.03446331E-16  4.05486075E-16 -3.45190506E-02  1.95624754E-02
  2.39681673E-01 -2.94180223E-01 -5.05415852E-01  5.78392922E-01  2.02156110E-01
 -2.50070300E-01  8.10156786E-01 -9.43999370E-01 -1.57644415E-01  1.90442357E-01
 -1.65459972E-01  1.99830925E-01 -4.47384989E-01  5.30711899E-01 -1.24604616E-01
  1.53245057E-01  5.12541247E-01 -5.95007247E-01 -1.65538253E-01  2.00187958E-01
 -1.77405213E-01  2.14225091E-01 -7.02987057E-17  8.51478634E-17 -1.53399510E-17
  3.41103014E-17  6.08100857E-03 -1.03715738E-02  5.87415425E-01 -6.93850961E-01
  7.79895563E-02 -9.26897493E-02 -6.76154810E-01  7.98246496E-01  4.97866868E-02
 -5.68476600E-02 -8.96856497E-02  1.07765172E-01 -2.84802781E-02  3.71501898E-02
  8.27821641E-02 -9.59506860E-02 -3.74131408E-02  4.50621393E-02  3.45887740E-02
 -4.01871405E-02 -6.20935536E-01  7.34278461E-01  6.29763403E-01 -7.42462193E-01
  1.46992976E-15 -1.52396207E-15 -1.25800744E-15  1.51707924E-15 -1.48709207E-02
  1.59466036E-02  5.53312058E-02 -6.50241794E-02  2.45309435E-02 -2.59586652E-02
 -6.03899246E-02  7.22940901E-02 -2.44519029E-01  2.90716716E-01  8.90597739E-01
 -1.05693018E+00  1.96369064E-01 -2.31988210E-01 -8.38191505E-01  9.95839414E-01
  5.05612466E-02 -6.03866824E-02  7.44465017E-03 -7.49467656E-03 -1.04854155E-01
  1.23315720E-01  4.45838251E-02 -5.39320815E-02 -7.85442452E-16  8.17750367E-16
 -3.72767605E-16  3.36007009E-16  9.70094221E-03 -7.52818499E-03  6.30333303E-01
 -7.51005074E-01  9.10305873E-03 -9.32817366E-03 -6.38152096E-01  7.62622946E-01
 -3.33164811E-02  3.99003847E-02  9.68383011E-03 -1.14379082E-02  2.27654457E-02
 -2.67079901E-02  1.98759857E-03 -2.25884308E-03  2.47579182E-02 -2.92877470E-02
  1.15951592E-02 -1.31695897E-02  6.22090840E-01 -7.41602188E-01 -6.55307280E-01
  7.82531242E-01  1.18703892E-15 -1.23649080E-15  2.78824202E-16 -3.48407975E-16
 -3.19606576E-02  5.57672908E-02  3.63985618E-01 -4.13803276E-01 -5.05811842E-01
  6.36343106E-01  3.35133806E-01 -3.79043226E-01 -6.80206903E-01  8.31195451E-01
  1.71708403E-01 -1.96321633E-01  1.64401016E-01 -1.87983600E-01  4.14515127E-01
 -4.89179412E-01 -2.66160994E-01  3.02093484E-01  5.39118974E-01 -6.69087761E-01
 -2.37900519E-01  2.65390389E-01 -1.66085980E-01  1.79203946E-01  8.62210968E-16
 -8.77026992E-16 -3.21047363E-16  3.29246831E-16 -2.92069396E-01  3.25066244E-01
 -2.27686226E-01  2.43266376E-01  4.58698224E-01 -6.01119222E-01 -1.70291624E-01
  1.73466604E-01  2.13727276E-01 -1.86991016E-01  4.83237746E-01 -5.16541891E-01
 -5.09858711E-01  7.04463967E-01  3.05371251E-01 -2.99447250E-01 -7.53679414E-01
  8.19802614E-01  2.66060719E-01 -4.35080597E-01 -5.49888779E-02 -4.52440467E-02
 -1.47885195E-01  6.95452228E-02 -4.74865647E-16  5.08598330E-16  2.97815171E-16
 -2.83877815E-16 -4.56026612E-01  6.67012619E-01  4.54436746E-01 -4.71815814E-01
  1.75255950E-01 -1.24873043E-01  4.13247719E-01 -4.21220281E-01 -5.56900501E-02
  1.10826110E-02 -3.19847807E-01  3.35497276E-01  2.99913746E-01 -4.28917256E-01
 -3.01260005E-01  3.12731924E-01 -7.08545046E-01  7.56072753E-01 -4.59990113E-01
  4.46828028E-01  1.94041354E-01 -3.76416174E-01  1.86678093E-01 -3.63992909E-01
  2.24787826E-15 -2.30104810E-15  1.46612208E-15 -1.26161426E-15 -2.74305619E-01
  4.54189727E-02 -5.38670144E-01  3.95824149E-01 -4.87906754E-01  3.31021868E-01
 -5.35909750E-01  3.92263947E-01 -4.37336002E-01  3.15537608E-01 -4.48877536E-01
  3.30371260E-01 -2.23293064E-01  4.06579849E-02 -4.09277374E-01  2.80199618E-01
 -3.21263208E-01  2.40447037E-01 -1.78373878E-01  5.77503402E-02 -2.81439148E-01
  1.87771215E-01 -2.82790732E-01  1.89796037E-01 -4.45458872E-16  4.40719566E-16
 -7.03901662E-16  7.35053724E-16 -2.57745234E-01  1.25930673E-01 -2.39505576E-01
  1.06818646E-01 -5.01550165E-01  4.50698953E-01 -2.60994667E-01  1.34341030E-01
  4.89943684E-01 -2.91807361E-01  4.06533231E-01 -1.83753604E-01  7.65003911E-01
 -6.53967299E-01  4.55914527E-01 -2.47301614E-01 -1.38711046E-01  6.35526688E-02
 -3.96881179E-01  4.01169820E-01 -1.01704418E-01  1.06115841E-02 -8.65311357E-02
 -8.17452156E-03  1.56537545E-15 -1.60813213E-15  1.60283279E-15 -1.69219756E-15
 -7.64673931E-01  8.20456048E-01 -1.86275492E-01  1.90990701E-02 -1.99600537E-01
  3.70261592E-02 -1.91114300E-01  2.56040355E-02 -7.07373824E-02  8.23978724E-02
 -9.09537074E-03  1.28184252E-03  1.91523469E-02 -3.48140511E-02 -3.44288199E-03
 -6.07591890E-03  2.50323954E-01  2.00642575E-02  5.24814857E-01 -3.48787740E-01
  6.61666365E-01 -5.48671922E-01  6.43577736E-01 -5.21034424E-01 -1.51591609E-15
  1.56127525E-15 -3.07155698E-15  3.12462535E-15 -1.30741137E-16  3.52963519E-16
  3.47325451E-15 -3.84057560E-15 -7.57799485E-16  1.25595673E-15 -6.90749034E-16
  1.03959484E-15  4.16593728E-16 -2.04810878E-16 -8.75242156E-16  1.47104938E-15
  2.33658915E-15 -2.50707438E-15  1.57245875E-15 -1.33293004E-15 -1.82453006E-15
  1.45439222E-15 -1.97824557E-15  1.74577788E-15 -8.89676204E-16  3.09613422E-16
 -3.26342192E-16 -2.67521013E-16 -1.14981805E+00  1.18695880E+00 -2.25024077E-10
  2.32292687E-10  1.82670300E-15 -1.69670752E-15  2.55250134E-16  2.75318753E-16
  2.41635312E-16  4.31993931E-16  1.87187872E-15 -1.62593527E-15  1.59443077E-15
 -1.23806018E-15  5.69501738E-16 -5.11730085E-17  1.28629244E-15 -1.13917544E-15
  7.66571322E-16 -4.57691261E-16 -2.22417367E-15  1.52942659E-15 -3.19814722E-15
  2.72322963E-15  1.37197959E-16 -1.09364433E-15 -2.52046450E-15  1.98328682E-15
  2.25024982E-10 -2.32293665E-10 -1.14981805E+00  1.18695880E+00
Beta MO coefficients                       R   N=         784
 -2.48628655E-21  2.39158566E-21 -4.45289399E-21  5.80600206E-21 -6.75943690E-22
 -5.99130808E-22  3.89954506E-22 -1.32103283E-21  3.91421850E-21 -3.69950594E-21
 -3.47172907E-22  1.77380373E-21  6.42848237E-22  3.28312410E-22  5.02894451E-21
 -6.18532001E-21  1.89493620E-22 -1.84211561E-21  2.15020556E-21 -4.38953629E-21
 -3.00620359E-21  5.20782354E-21 -2.50136989E-21  3.24641016E-21 -5.92081261E-01
 -5.13586011E-01 -3.45362271E-21  3.56559106E-21  1.60007282E-16 -1.06796939E-17
  2.32192362E-16  1.91630614E-16 -7.63816008E-17  3.79673474E-16  7.17150124E-17
  4.48175201E-17 -2.09697428E-16 -8.41467486E-17 -3.98016894E-17 -3.70548934E-16
 -9.00920034E-17  1.23806917E-16  8.06431508E-17 -1.59134426E-17  1.06635575E-16
 -3.54151769E-18  2.12554056E-16 -8.94948312E-17  1.76717830E-16  1.92423011E-16
 -8.63590380E-17 -2.14376208E-17 -6.69021649E-21  6.90618276E-21 -5.92081261E-01
 -5.13586011E-01  1.64642736E-02  9.03276843E-02 -4.43554459E-01 -7.24335723E-01
  1.61470675E-02  8.99398086E-02  1.60345220E-02  8.97675853E-02  5.23927775E-04
 -2.30670303E-04  4.66593538E-04 -1.75015283E-04 -3.24448437E-03  9.57947293E-05
 -1.78836155E-04  1.82045791E-04  9.67159176E-04  5.65464188E-04 -1.38867040E-03
  1.92032712E-04 -2.51978522E-03 -1.87169118E-03 -4.87128813E-04 -2.07866271E-03
  6.93937987E-18  6.01939068E-18  1.52785995E-16  1.32530372E-16 -7.84096507E-04
  8.30894135E-05  4.14566738E-05  8.62224782E-05  1.02146174E-03 -8.70950957E-04
 -2.28264598E-04  2.81460131E-04  1.61339195E-02  8.99488474E-02  1.60638044E-02
  9.00364346E-02  1.61219188E-02  8.98818213E-02 -4.43533975E-01 -7.24296793E-01
  3.65165792E-04 -8.92464465E-05 -2.24576772E-03 -2.39796922E-04  6.54947108E-05
  7.88461036E-05  2.89274565E-04 -6.48812445E-05  1.04101622E-16  9.03003362E-17
 -5.37834868E-17 -4.66531340E-17 -7.55298502E-03 -4.11579547E-03  8.18562983E-04
  4.62082657E-04  7.76515329E-04  4.61827649E-04  7.71855073E-04  4.73233992E-04
 -8.07701373E-04  1.79932845E-04  4.78736772E-04 -1.83520618E-04 -2.17882027E-03
 -8.36748996E-05  3.07540172E-04 -5.39616927E-05 -4.43807387E-01 -7.24056463E-01
  1.63779030E-02  9.00514734E-02  1.67811988E-02  8.97528108E-02  1.66970503E-02
  8.98319038E-02 -2.55032962E-17 -2.21221934E-17  1.18330061E-16  1.02642437E-16
 -7.97622649E-03 -1.71200690E-02 -4.77720450E-04  3.06491912E-03  8.50399935E-04
  2.51517430E-03  1.66454101E-03  2.11527698E-03  8.21719005E-04 -2.01062366E-04
 -3.49268018E-04  7.27625546E-05  1.40037673E-03  4.13049286E-04 -2.80746326E-04
  2.81343079E-05 -1.62915002E-02 -8.97174977E-02 -1.58044245E-02 -9.00780538E-02
 -1.53305684E-02 -8.98903624E-02  4.43876442E-01  7.24814771E-01  4.21963117E-17
  3.66021302E-17 -3.49228223E-17 -3.02929246E-17 -1.62972758E-02 -9.01714382E-02
 -1.61274583E-02 -8.99695338E-02  4.43789953E-01  7.24286602E-01 -1.60594957E-02
 -8.99981622E-02  1.42539272E-03  5.15181087E-04  9.85023271E-04  8.16234771E-04
 -7.22734102E-03 -6.37521970E-03 -1.74732458E-03  1.46261659E-03 -9.37857124E-04
 -5.83113916E-04  6.44609406E-06  2.64507580E-04  2.36305479E-03  1.90362549E-03
  1.79999329E-03  1.66795716E-03  1.51311958E-17  1.31251755E-17 -1.09250555E-16
 -9.47666487E-17 -3.17239189E-03 -4.00597783E-03  8.00506765E-04  3.85780026E-04
 -5.45678582E-04  1.00969736E-03  6.55127017E-04  4.86188949E-04 -4.36377789E-03
  1.97947467E-04  1.89874568E-03  4.89191496E-04 -7.71593308E-03 -5.65089673E-03
  1.12497988E-03  9.02699547E-04 -1.61627080E-02 -9.01718716E-02  4.43716529E-01
  7.24451711E-01 -1.58513303E-02 -9.00104958E-02 -1.59299430E-02 -8.99492870E-02
 -1.89886141E-16 -1.64711961E-16 -1.56062254E-17 -1.35372280E-17 -1.63987731E-02
 -9.02004247E-02 -1.60376253E-02 -8.97411248E-02 -1.61070121E-02 -8.99826533E-02
  4.43508674E-01  7.24313306E-01 -3.23989450E-04  8.01596401E-05 -3.09014315E-04
  6.67760274E-05  1.81894328E-03  4.60719075E-04  3.76097785E-04 -3.21279193E-04
 -9.32410961E-04 -5.68162787E-04  1.23049225E-03 -1.30635300E-04  3.75505788E-04
  2.52250005E-03  2.62545902E-03  1.33243517E-03  4.20332274E-17  3.64606668E-17
 -3.34196451E-17 -2.89890313E-17 -1.01517626E-03  2.46261279E-04  4.86126106E-04
 -1.75659358E-04 -1.90260435E-03 -2.48950143E-04  2.53665081E-04 -1.98396299E-05
  1.61020776E-02  8.97724190E-02 -4.43556619E-01 -7.24280347E-01  1.62358929E-02
  8.99855564E-02  1.60646630E-02  9.00598282E-02  4.88914504E-04 -1.89225889E-04
 -3.05453626E-03  1.02849032E-04  1.78711218E-04 -1.90236747E-05  3.13949212E-04
 -8.89020855E-05 -2.18761232E-17 -1.89758933E-17 -1.94495140E-16 -1.68709921E-16
  8.73107358E-03  2.01773310E-02 -1.47946854E-03 -2.73844994E-03 -1.34793115E-03
 -2.73562118E-03  6.40295795E-04 -3.53048275E-03 -9.55554905E-04  2.81079528E-04
  2.57896840E-04 -2.09435997E-05 -5.04268958E-04 -7.27496146E-04  1.00965447E-04
  9.93996917E-05  1.63370270E-02  8.95574811E-02  1.57080712E-02  9.01740474E-02
 -4.44015614E-01 -7.24945676E-01  1.53074527E-02  8.99311290E-02 -2.59182340E-17
 -2.24821207E-17  3.33877909E-17  2.89614002E-17  7.64996019E-04 -9.67791155E-05
 -5.31172411E-04  2.20470445E-04  2.35319006E-03  1.00795528E-05 -2.55806049E-04
  2.81878952E-05  4.43583893E-01  7.24256599E-01 -1.61137407E-02 -8.97649777E-02
 -1.59965406E-02 -9.01765175E-02 -1.61312409E-02 -8.99467804E-02  3.80466332E-04
  6.81913658E-05 -3.58114026E-03 -5.71496567E-04  6.16593410E-04 -8.47910878E-05
  4.40594492E-04  2.56191376E-05  1.45634868E-17  1.26327306E-17  1.19005916E-16
  1.03228691E-16  4.38912272E-03  2.25804706E-04 -2.03248219E-03 -5.27915092E-04
  7.52215061E-03  5.90116535E-03 -6.64934851E-04 -1.21790008E-03  1.59298598E-02
  9.02192789E-02  1.61867522E-02  9.00453063E-02 -4.44078225E-01 -7.24176954E-01
  1.60414243E-02  8.98731901E-02 -1.35608112E-03 -5.49529682E-04  7.33526319E-03
  6.18937673E-03  2.26738846E-04 -1.18732580E-03 -6.27077537E-04 -8.61498446E-04
 -1.28883697E-16 -1.11796924E-16 -1.20771154E-16 -1.04759902E-16 -4.45012164E-01
 -7.25045237E-01  1.60737475E-02  9.01637453E-02  1.59467940E-02  8.99597443E-02
  1.59959077E-02  9.00596389E-02 -3.10690953E-04 -1.95343499E-04 -5.72677372E-04
  8.04301461E-06  3.56284450E-03  1.04930028E-03 -5.41972452E-04 -8.26586026E-05
 -4.92049547E-03 -6.05540963E-03  5.00011299E-03  1.56402711E-03  9.86659407E-03
  1.71199862E-02  9.22965307E-03  1.41865791E-02  3.71884071E-17  3.22581492E-17
 -5.37353016E-17 -4.66113370E-17 -6.43406345E-01  6.72217699E-01  2.93656406E-01
 -3.71708463E-01 -1.78653868E-01  1.59235337E-01  2.32508250E-01 -3.01768042E-01
  3.35779835E-03 -3.41076483E-02  2.17825230E-01 -2.77213776E-01 -5.84561780E-01
  6.27369503E-01  1.45960197E-01 -1.94995465E-01  4.78542249E-01 -5.94376435E-01
 -4.78954031E-01  4.78535615E-01 -2.37673406E-01  1.91095761E-01 -1.90142215E-01
  1.40746086E-01  6.60523733E-18 -5.39601848E-18 -1.52541864E-16  1.56737976E-16
 -5.09284067E-01  5.62602658E-01 -6.99719099E-02  8.55116545E-02  5.92682587E-01
 -6.72668005E-01 -3.87603418E-03  9.16524239E-03  6.83380598E-03  1.95909021E-02
 -2.47192264E-01  3.11424844E-01  5.05655055E-01 -5.45891285E-01 -6.85354600E-02
  1.05197121E-01  3.04679768E-01 -3.71728751E-01  3.78809127E-01 -4.60052605E-01
 -4.34556739E-01  4.55427705E-01 -4.43836852E-01  4.69343886E-01 -4.11414716E-16
  4.18273179E-16 -8.03446331E-16  4.05486075E-16 -3.45190506E-02  1.95624754E-02
  2.39681673E-01 -2.94180223E-01 -5.05415852E-01  5.78392922E-01  2.02156110E-01
 -2.50070300E-01  8.10156786E-01 -9.43999370E-01 -1.57644415E-01  1.90442357E-01
 -1.65459972E-01  1.99830925E-01 -4.47384989E-01  5.30711899E-01 -1.24604616E-01
  1.53245057E-01  5.12541247E-01 -5.95007247E-01 -1.65538253E-01  2.00187958E-01
 -1.77405213E-01  2.14225091E-01 -7.02987057E-17  8.51478634E-17 -1.53399510E-17
  3.41103014E-17  6.08100857E-03 -1.03715738E-02  5.87415425E-01 -6.93850961E-01
  7.79895563E-02 -9.26897493E-02 -6.76154810E-01  7.98246496E-01  4.97866868E-02
 -5.68476600E-02 -8.96856497E-02  1.07765172E-01 -2.84802781E-02  3.71501898E-02
  8.27821641E-02 -9.59506860E-02 -3.74131408E-02  4.50621393E-02  3.45887740E-02
 -4.01871405E-02 -6.20935536E-01  7.34278461E-01  6.29763403E-01 -7.42462193E-01
  1.46992976E-15 -1.52396207E-15 -1.25800744E-15  1.51707924E-15 -1.48709207E-02
  1.59466036E-02  5.53312058E-02 -6.50241794E-02  2.45309435E-02 -2.59586652E-02
 -6.03899246E-02  7.22940901E-02 -2.44519029E-01  2.90716716E-01  8.90597739E-01
 -1.05693018E+00  1.96369064E-01 -2.31988210E-01 -8.38191505E-01  9.95839414E-01
  5.05612466E-02 -6.03866824E-02  7.44465017E-03 -7.49467656E-03 -1.04854155E-01
  1.23315720E-01  4.45838251E-02 -5.39320815E-02 -7.85442452E-16  8.17750367E-16
 -3.72767605E-16  3.36007009E-16  9.70094221E-03 -7.52818499E-03  6.30333303E-01
 -7.51005074E-01  9.10305873E-03 -9.32817366E-03 -6.38152096E-01  7.62622946E-01
 -3.33164811E-02  3.99003847E-02  9.68383011E-03 -1.14379082E-02  2.27654457E-02
 -2.67079901E-02  1.98759857E-03 -2.25884308E-03  2.47579182E-02 -2.92877470E-02
  1.15951592E-02 -1.31695897E-02  6.22090840E-01 -7.41602188E-01 -6.55307280E-01
  7.82531242E-01  1.18703892E-15 -1.23649080E-15  2.78824202E-16 -3.48407975E-16
 -3.19606576E-02  5.57672908E-02  3.63985618E-01 -4.13803276E-01 -5.05811842E-01
  6.36343106E-01  3.35133806E-01 -3.79043226E-01 -6.80206903E-01  8.31195451E-01
  1.71708403E-01 -1.96321633E-01  1.64401016E-01 -1.87983600E-01  4.14515127E-01
 -4.89179412E-01 -2.66160994E-01  3.02093484E-01  5.39118974E-01 -6.69087761E-01
 -2.37900519E-01  2.65390389E-01 -1.66085980E-01  1.79203946E-01  8.62210968E-16
 -8.77026992E-16 -3.21047363E-16  3.29246831E-16 -2.92069396E-01  3.25066244E-01
 -2.27686226E-01  2.43266376E-01  4.58698224E-01 -6.01119222E-01 -1.70291624E-01
  1.73466604E-01  2.13727276E-01 -1.86991016E-01  4.83237746E-01 -5.16541891E-01
 -5.09858711E-01  7.04463967E-01  3.05371251E-01 -2.99447250E-01 -7.53679414E-01
  8.19802614E-01  2.66060719E-01 -4.35080597E-01 -5.49888779E-02 -4.52440467E-02
 -1.47885195E-01  6.95452228E-02 -4.74865647E-16  5.08598330E-16  2.97815171E-16
 -2.83877815E-16 -4.56026612E-01  6.67012619E-01  4.54436746E-01 -4.71815814E-01
  1.75255950E-01 -1.24873043E-01  4.13247719E-01 -4.21220281E-01 -5.56900501E-02
  1.10826110E-02 -3.19847807E-01  3.35497276E-01  2.99913746E-01 -4.28917256E-01
 -3.01260005E-01  3.12731924E-01 -7.08545046E-01  7.56072753E-01 -4.59990113E-01
  4.46828028E-01  1.94041354E-01 -3.76416174E-01  1.86678093E-01 -3.63992909E-01