                  Welcome to Q-Chem
     A Quantum Leap Into The Future Of Chemistry


 Q-Chem 4.3, Q-Chem, Inc., Pleasanton, CA (2015)

 Y. Shao,  Z. Gan,  E. Epifanovsky,  A. T. B. Gilbert,  M. Wormit,  
 J. Kussmann,  A. W. Lange,  A. Behn,  J. Deng,  X. Feng,  D. Ghosh,  
 M. Goldey,  P. R. Horn,  L. D. Jacobson,  I. Kaliman,  R. Z. Khaliullin,  
 T. Kus,  A. Landau,  J. Liu,  E. I. Proynov,  Y. M. Rhee,  R. M. Richard,  
 M. A. Rohrdanz,  R. P. Steele,  E. J. Sundstrom,  H. L. Woodcock III,  
 P. M. Zimmerman,  D. Zuev,  B. Albrecht,  E. Alguire,  B. Austin,  
 S. A. Baeppler,  G. J. O. Beran,  Y. A. Bernard,  E. Berquist,  
 K. Brandhorst,  K. B. Bravaya,  S. T. Brown,  D. Casanova,  C.-M. Chang,  
 Y. Chen,  S. H. Chien,  K. D. Closser,  D. L. Crittenden,  M. Diedenhofen,  
 R. A. DiStasio Jr.,  H. Do,  A. D. Dutoi,  R. G. Edgar,  P.-T. Fang,  
 S. Fatehi,  Q. Feng,  L. Fusti-Molnar,  A. Ghysels,  
 A. Golubeva-Zadorozhnaya,  J. Gomes,  A. Gunina,  M. W. D. Hanson-Heine,  
 P. H. P. Harbach,  A. W. Hauser,  E. G. Hohenstein,  Z. C. Holden,  K. Hui,  
 T.-C. Jagau,  H. Ji,  B. Kaduk,  K. Khistyaev,  Jaehoon Kim,  Jihan Kim,  
 R. A. King,  P. Klunzinger,  D. Kosenkov,  T. Kowalczyk,  C. M. Krauter,  
 K. U. Lao,  A. Laurent,  K. V. Lawler,  S. Lehtola,  S. V. Levchenko,  
 C. Y. Lin,  Y.-S. Lin,  F. Liu,  E. Livshits,  R. C. Lochan,  A. Luenser,  
 P. Manohar,  S. F. Manzer,  S.-P. Mao,  N. Mardirossian,  A. V. Marenich,  
 L. A. Martinez-Martinez,  S. A. Maurer,  N. J. Mayhall,  K. Nanda,  
 C. M. Oana,  R. Olivares-Amaya,  D. P. O'Neill,  J. A. Parkhill,  
 T. M. Perrine,  R. Peverati,  P. A. Pieniazek,  F. Plasser,  A. Prociuk,  
 D. R. Rehn,  E. Rosta,  N. J. Russ,  N. Sergueev,  S. M. Sharada,  
 S. Sharma,  D. W. Small,  A. Sodt,  T. Stauch,  T. Stein,  D. Stuck,  
 Y.-C. Su,  A. J. W. Thom,  T. Tsuchimochi,  L. Vogt,  O. Vydrov,  T. Wang,  
 M. A. Watson,  J. Wenzel,  A. White,  C. F. Williams,  V. Vanovschi,  
 S. Yeganeh,  S. R. Yost,  Z.-Q. You,  I. Y. Zhang,  X. Zhang,  Y. Zhao,  
 B. R. Brooks,  G. K. L. Chan,  D. M. Chipman,  C. J. Cramer,  
 W. A. Goddard III,  M. S. Gordon,  W. J. Hehre,  A. Klamt,  
 H. F. Schaefer III,  M. W. Schmidt,  C. D. Sherrill,  D. G. Truhlar,  
 A. Warshel,  X. Xu,  A. Aspuru-Guzik,  R. Baer,  A. T. Bell,  N. A. Besley,  
 J.-D. Chai,  A. Dreuw,  B. D. Dunietz,  T. R. Furlani,  S. R. Gwaltney,  
 C.-P. Hsu,  Y. Jung,  J. Kong,  D. S. Lambrecht,  W. Liang,  C. Ochsenfeld,  
 V. A. Rassolov,  L. V. Slipchenko,  J. E. Subotnik,  T. Van Voorhis,  
 J. M. Herbert,  A. I. Krylov,  P. M. W. Gill,  M. Head-Gordon

 Contributors to earlier versions of Q-Chem not listed above: 
 R. D. Adamson,  J. Baker,  E. F. C. Byrd,  A. K. Chakraborty,  C.-L. Cheng,  
 H. Dachsel,  R. J. Doerksen,  G. Hawkins,  A. Heyden,  S. Hirata,  
 G. Kedziora,  F. J. Keil,  C. Kelley,  P. P. Korambath,  W. Kurlancheek,  
 A. M. Lee,  M. S. Lee,  D. Liotard,  I. Lotan,  P. E. Maslen,  N. Nair,  
 D. Neuhauser,  R. Olson,  B. Peters,  J. Ritchie,  N. E. Schultz,  
 N. Shenvi,  A. C. Simmonett,  K. S. Thanthiriwatte,  Q. Wu,  W. Zhang

 Please cite Q-Chem as follows:
 Y. Shao et al., Mol. Phys. 113, 184-215 (2015)
 DOI: 10.1080/00268976.2014.952696

 Q-Chem 4.3.0 for Intel X86 EM64T Linux

 Parts of Q-Chem use Armadillo 5.200.1 (Boston Tea Smuggler).
 http://arma.sourceforge.net/

 Q-Chem begins on Mon Mar 20 16:11:05 2017  


Host: 0

     Scratch files written to /home/nmayhall/scratch_qchem/10//
 Dec1416 |home|nmayhall|qcSoftware|qchem|qchem.svn-casman|libmdc|qstr_RNUM -1
 Using version located at /home/nmayhall/qcSoftware/qchem/qchem.svn-casman/bin/qchem


Total Memory Limit in MB = 2000
Mega-Array Size in MB = 62

Checking the input file for inconsistencies... 	...done.

 Q-Chem warning in module /home/nmayhall/qcSoftware/qchem/qchem.svn-casman/forms1/BasisType.C, line 1452:

 You are not using the predefined 5D/6D in this basis set.

Finally everything over in PARseQInput

--------------------------------------------------------------
User input:
--------------------------------------------------------------
$rem
	exchange 		hf
	unrestricted		1
	basis			6-31g*	
	aux_basis		rimp2-vdz
	scf_guess		core	
	scf_convergence		8
	purecart		1111

	symmetry		0
	sym_ignore		1

	!correlation		sf-cas
	!cas_n_spin_flip		1
	!cas_local		1
	gui			2
$end

$development
	1sf_heis_projection	1
$end

$molecule
0 13
H         -0.73854       -0.54065        0.08576
H         -2.31340       -1.01748       -0.67017
H         -2.09582        0.65549       -0.01146
H         -2.21044       -0.75437        1.11995
H	1.47674	4.07203	0.09828
H	0.1685	4.66022	1.20546
H	0.18287	2.9348	0.65668
H	-0.21686	4.25528	-0.51743
H          3.48850       -0.87553       -0.06084
H          2.29649        0.48578       -0.00191
H          1.93960       -1.06676        0.85992
H          1.91588       -1.00965       -0.95022
He	10	10	10	
He	-10	10	10	
$end


--------------------------------------------------------------
 ----------------------------------------------------------------
             Standard Nuclear Orientation (Angstroms)
    I     Atom           X                Y                Z
 ----------------------------------------------------------------
    1      H      -0.7385400000    -0.5406500000     0.0857600000
    2      H      -2.3134000000    -1.0174800000    -0.6701700000
    3      H      -2.0958200000     0.6554900000    -0.0114600000
    4      H      -2.2104400000    -0.7543700000     1.1199500000
    5      H       1.4767400000     4.0720300000     0.0982800000
    6      H       0.1685000000     4.6602200000     1.2054600000
    7      H       0.1828700000     2.9348000000     0.6566800000
    8      H      -0.2168600000     4.2552800000    -0.5174300000
    9      H       3.4885000000    -0.8755300000    -0.0608400000
   10      H       2.2964900000     0.4857800000    -0.0019100000
   11      H       1.9396000000    -1.0667600000     0.8599200000
   12      H       1.9158800000    -1.0096500000    -0.9502200000
   13      He     10.0000000000    10.0000000000    10.0000000000
   14      He    -10.0000000000    10.0000000000    10.0000000000
 ----------------------------------------------------------------
 Nuclear Repulsion Energy =    12.2870387774 hartrees
 There are       14 alpha and        2 beta electrons
 Requested basis set is 6-31G(d)
 There are 28 shells and 28 basis functions

Total QAlloc Memory Limit   2000 MB
Mega-Array Size        61 MB
MEM_STATIC part        62 MB

finished with qalloc call

                       Distance Matrix (Angstroms)
             H (  1)   H (  2)   H (  3)   H (  4)   H (  5)   H (  6)
   H (  2)  1.810796
   H (  3)  1.811743  1.811096
   H (  4)  1.811550  1.812280  1.811334
   H (  5)  5.117073  6.392088  4.944489  6.158997
   H (  6)  5.396804  6.474109  4.758771  5.914766  1.811990
   H (  7)  3.640563  4.859260  3.291518  4.421824  1.810857  1.810646
   H (  8)  4.861783  5.676338  4.092064  5.634888  1.811342  1.811306
   H (  9)  4.242818  5.835536  5.790604  5.821242  5.343299  6.578027
   H ( 10)  3.205098  4.894635  4.395598  4.807178  3.680111  4.838598
   H ( 11)  2.836997  4.520134  4.473261  4.169896  5.215505  6.004539
   H ( 12)  2.887761  4.238549  4.443838  4.623558  5.207271  6.312505
   He( 13) 18.019814 19.668686 18.271783 18.536629 14.346806 14.230797
   He( 14) 17.180573 17.155792 15.812187 15.974636 16.275763 14.465669
             H (  7)   H (  8)   H (  9)   H ( 10)   H ( 11)   H ( 12)
   H (  8)  1.811625
   H (  9)  5.095158  6.345343
   H ( 10)  3.301337  4.559805  1.810394
   H ( 11)  4.374916  5.905211  1.812032  1.811216
   H ( 12)  4.598275  5.696962  1.811662  1.811206  1.811196
   He( 13) 15.283675 15.748091 16.183241 15.808310 16.461600 17.506362
   He( 14) 15.521131 15.470229 20.035900 18.486813 18.669984 19.573143
             He( 13)
   He( 14) 20.000000


 Q-Chem warning in module /home/nmayhall/qcSoftware/qchem/qchem.svn-casman/forms1/BasisType.C, line 1375:

 SAD: How to set up polarization functions for non-Pople basis?

 Requested basis set is rimp2-VDZ
 There are 82 shells and 186 basis functions
 Job number = 2, Threshold = 1.00E-11
Integral type ranges set in mkLRange.C for JobNum: 2  <1-7|1-7>
Symmetry turned off temporarily
 Using the largest function pair in Schwarz integrals
Total number of integrals generated =            1001
Symmetry turned back on
 A cutoff of  1.0D-11 yielded    275 shell pairs
 There are       275 function pairs
 Job number = 11, Threshold = 1.00E-11
Integral type ranges set in mkLRange.C for JobNum: 11  <1-1|8-8>

 -------------------------------------------------------
 OpenMP Integral Computing Module                       
 Release: version 1.0, May 2013, Q-Chem Inc. Pittsburgh 
 -------------------------------------------------------
 Integral Job Info:
 Integral job number is                      11
 Integral operator is                         1
 short-range coefficients                     0
 long-range coefficients              100000000
 Omega coefficients                           0
 if combine SR and LR in K                    0
 Integral screening is                        0
 Integral computing path is                   2
 max size of driver memory is            800000
 size of driver memory is                 11780
 size of scratch memory is               800000
 max col of scratch BK array                289
 max len of scratch array in speh3            1
 max len of scratch index in speh4            2
 max int batch size is                      520
 min int batch size is                       52
 fixed nKL is                               520
 max L of basis functions is                  0
 order of int derivative is                   0
 number of shells is                         28
 number of basis is                          28
 number of cartesian basis is                28
 number of contracted shell pairs           275
 number of primitive shell pairs            771
 maxK2 (contraction) of shell pair            9
 max number of K2 of shell pair               1
 max number of CS2 of shell pair            138
 max number of PS2 of shell pair            414
 mem total for path MDJ                    6672
 -------------------------------------------------------
 Smallest overlap matrix eigenvalue = 2.11E-01
 Multipole matrices computed through 2nd order

  Scale SEOQF with 1.000000e-02/1.000000e-02/1.000000e-02

 Standard Electronic Orientation quadrupole field applied
 Nucleus-field energy     =     0.0000000006 hartrees
GuessMan:  IGuess = 1
 Guess MOs from core Hamiltonian diagonalization
scfman initvdwdat 
 An unrestricted Hartree-Fock SCF calculation will be
 performed using Pulay DIIS extrapolation
 SCF converges when DIIS error is below 1.0E-08
Finding J and K together
 Job number = 22, Threshold = 1.00E-11
Integral type ranges set in mkLRange.C for JobNum: 22  <1-1|1-1>
Storing 4790.99% of integrals
Total number of integrals generated =           33679
 MakeJK  time:  CPU       0.01 s  wall       0.01 s
Fock build time:  0.01 s (CPU) 0.01 s (wall)
DIIS Errors:  Max 3.24E-01 RMS 2.77E-02

Current DIIS subspace size = 1
REM_GRID_RESTART_DIIS = 0

 ---------------------------------------
  Cycle       Energy         DIIS Error
 ---------------------------------------
    1      -9.5246421797      2.77E-02  00000
Finding J and K together
 Job number = 22, Threshold = 1.00E-11
Integral type ranges set in mkLRange.C for JobNum: 22  <1-1|1-1>
Storing 4790.99% of integrals
Reusing in-core integrals buffer for job 22
 MakeJK  time:  CPU       0.00 s  wall       0.00 s
Fock build time:  0.00 s (CPU) 0.00 s (wall)
DIIS Errors:  Max 2.54E-01 RMS 1.91E-02

Current DIIS subspace size = 2
REM_GRID_RESTART_DIIS = 0

    2     -11.3745600368      1.91E-02  00000
Finding J and K together
 Job number = 22, Threshold = 1.00E-11
Integral type ranges set in mkLRange.C for JobNum: 22  <1-1|1-1>
Storing 4790.99% of integrals
Reusing in-core integrals buffer for job 22
 MakeJK  time:  CPU       0.00 s  wall       0.00 s
Fock build time:  0.00 s (CPU) 0.00 s (wall)
DIIS Errors:  Max 1.11E-01 RMS 8.51E-03

Current DIIS subspace size = 3
REM_GRID_RESTART_DIIS = 0

    3     -11.4386302637      8.51E-03  00000
Finding J and K together
 Job number = 22, Threshold = 1.00E-11
Integral type ranges set in mkLRange.C for JobNum: 22  <1-1|1-1>
Storing 4790.99% of integrals
Reusing in-core integrals buffer for job 22
 MakeJK  time:  CPU       0.00 s  wall       0.00 s
Fock build time:  0.00 s (CPU) 0.00 s (wall)
DIIS Errors:  Max 8.70E-03 RMS 8.15E-04

Current DIIS subspace size = 4
REM_GRID_RESTART_DIIS = 0

    4     -11.4691711981      8.15E-04  00000
Finding J and K together
 Job number = 22, Threshold = 1.00E-11
Integral type ranges set in mkLRange.C for JobNum: 22  <1-1|1-1>
Storing 4790.99% of integrals
Reusing in-core integrals buffer for job 22
 MakeJK  time:  CPU       0.00 s  wall       0.00 s
Fock build time:  0.00 s (CPU) 0.00 s (wall)
DIIS Errors:  Max 1.45E-04 RMS 1.09E-05

Current DIIS subspace size = 5
REM_GRID_RESTART_DIIS = 0

    5     -11.4717307044      1.09E-05  00000
Finding J and K together
 Job number = 22, Threshold = 1.00E-11
Integral type ranges set in mkLRange.C for JobNum: 22  <1-1|1-1>
Storing 4790.99% of integrals
Reusing in-core integrals buffer for job 22
 MakeJK  time:  CPU       0.00 s  wall       0.00 s
Fock build time:  0.00 s (CPU) 0.00 s (wall)
DIIS Errors:  Max 1.29E-05 RMS 9.45E-07

Current DIIS subspace size = 6
REM_GRID_RESTART_DIIS = 0

    6     -11.4718346027      9.45E-07  00000
Finding J and K together
 Job number = 22, Threshold = 1.00E-11
Integral type ranges set in mkLRange.C for JobNum: 22  <1-1|1-1>
Storing 4790.99% of integrals
Reusing in-core integrals buffer for job 22
 MakeJK  time:  CPU       0.00 s  wall       0.00 s
Fock build time:  0.00 s (CPU) 0.00 s (wall)
DIIS Errors:  Max 4.30E-07 RMS 3.32E-08

Current DIIS subspace size = 7
REM_GRID_RESTART_DIIS = 0

    7     -11.4718505248      3.32E-08  00000
Finding J and K together
 Job number = 22, Threshold = 1.00E-11
Integral type ranges set in mkLRange.C for JobNum: 22  <1-1|1-1>
Storing 4790.99% of integrals
Reusing in-core integrals buffer for job 22
 MakeJK  time:  CPU       0.00 s  wall       0.00 s
Fock build time:  0.00 s (CPU) 0.00 s (wall)
DIIS Errors:  Max 2.43E-07 RMS 1.83E-08

Current DIIS subspace size = 8
REM_GRID_RESTART_DIIS = 0

    8     -11.4718536205      1.83E-08  00000
Finding J and K together
 Job number = 22, Threshold = 1.00E-11
Integral type ranges set in mkLRange.C for JobNum: 22  <1-1|1-1>
Storing 4790.99% of integrals
Reusing in-core integrals buffer for job 22
 MakeJK  time:  CPU       0.00 s  wall       0.00 s
Fock build time:  0.00 s (CPU) 0.00 s (wall)
DIIS Errors:  Max 3.90E-09 RMS 2.95E-10

Current DIIS subspace size = 9
REM_GRID_RESTART_DIIS = 0

    9     -11.4718539805      2.95E-10  00000 Convergence criterion met
 ---------------------------------------
 <S^2> = 42.0000
 SCF time:  CPU 0.06 s  wall 0.05 s
 SCF   energy in the final basis set = -11.4718539805
 Total energy in the final basis set = -11.4718539805
Symmetry turned off temporarily
 Analysis of SCF Wavefunction

 --------------------------------------------------------------

                    Orbital Energies (a.u.)
 --------------------------------------------------------------

 Alpha MOs
 -- Occupied --
 -0.914  -0.914  -0.709  -0.702  -0.698  -0.469  -0.464  -0.457
 -0.455  -0.454  -0.452  -0.450  -0.445  -0.439
 -- Virtual --
  0.833   0.858   0.893   0.906   0.917   0.928   0.949   0.974
  0.985   1.059   1.107   1.151   1.400   1.400

 Beta MOs
 -- Occupied --
 -0.914  -0.914
 -- Virtual --
 -0.049  -0.038  -0.033   0.139   0.144   0.157   0.160   0.163
  0.166   0.172   0.183   0.193   1.053   1.073   1.101   1.112
  1.121   1.130   1.148   1.172   1.181   1.262   1.306   1.346
  1.400   1.400
 --------------------------------------------------------------

          Ground-State Mulliken Net Atomic Charges

     Atom                 Charge (a.u.)    Spin (a.u.)
  --------------------------------------------------------
      1 H                     0.000103       0.999897
      2 H                     0.000006       0.999994
      3 H                    -0.000005       1.000005
      4 H                     0.000004       0.999996
      5 H                    -0.000007       1.000007
      6 H                     0.000004       0.999996
      7 H                     0.000009       0.999991
      8 H                    -0.000007       1.000007
      9 H                     0.000065       0.999935
     10 H                    -0.000037       1.000037
     11 H                    -0.000064       1.000064
     12 H                    -0.000069       1.000069
     13 He                    0.000000       0.000000
     14 He                    0.000000       0.000000
  --------------------------------------------------------
  Sum of atomic charges =     0.000000
  Sum of spin   charges =    12.000000

 -----------------------------------------------------------------
                    Cartesian Multipole Moments
 -----------------------------------------------------------------
    Charge (ESU x 10^10)
                 0.0000
    Dipole Moment (Debye)
         X      -0.0005      Y      -0.0005      Z       0.0002
       Tot       0.0007
    Quadrupole Moments (Debye-Ang)
        XX     -19.6016     XY       0.0139     YY     -19.5218
        XZ      -0.0000     YZ      -0.0025     ZZ     -19.5140
    Octopole Moments (Debye-Ang^2)
       XXX     -19.5103    XXY     -37.4821    XYY      -4.8354
       YYY    -115.0327    XXZ     -22.9240    XYZ      -0.0087
       YYZ     -23.7914    XZZ      -4.1145    YZZ     -37.3901
       ZZZ     -70.7109
    Hexadecapole Moments (Debye-Ang^3)
      XXXX   -1642.4067   XXXY     -15.6598   XXYY    -588.7129
      XYYY     -13.0448   YYYY   -1871.9827   XXXZ       3.4164
      XXYZ    -215.1927   XYYZ       0.0416   YYYZ    -655.8063
      XXZZ    -491.0341   XYZZ      -4.1639   YYZZ    -538.7492
      XZZZ       4.4598   YZZZ    -650.0984   ZZZZ   -1318.2298
 -----------------------------------------------------------------
 JobOver = TRUE
Archival summary:
1\1\sinatra\SP\HF\6-31G*\e212()\nmayhall\MonMar2016:11:052017MonMar2016:11:052017\0\\#,HF,6-31G*,\\0,13\H\H,1,1.8108\H,2,1.8111,1,60.0291\H,3,1.81133,2,60.0389,1,70.5227,0\H,1,2.837,2,152.386,3,178.05,0\H,5,1.8112,1,73.0863,2,-68.5028,0\H,6,1.81121,5,60.0005,1,-92.9521,0\H,7,1.81039,6,60.0315,5,-70.571,0\H,3,3.29152,2,142.813,1,-25.8526,0\H,9,1.81065,3,135.718,2,-173.386,0\H,9,1.81086,3,150.104,2,-62.98,0\H,10,1.81131,9,60.0237,3,76.8609,0\He,10,14.2308,9,122.642,3,-144.295,0\He,10,14.4657,9,122.793,3,-32.4368,0\\HF=-11.471854\\@

 Total job time:  0.12s(wall), 0.12s(cpu) 
 Mon Mar 20 16:11:05 2017

        *************************************************************
        *                                                           *
        *  Thank you very much for using Q-Chem.  Have a nice day.  *
        *                                                           *
        *************************************************************


*** MISSION COMPLETED -- STARFLEET OUT ***

 
User input: 2 of 2 
 
                  Welcome to Q-Chem
     A Quantum Leap Into The Future Of Chemistry


 Q-Chem 4.3, Q-Chem, Inc., Pleasanton, CA (2015)

 Y. Shao,  Z. Gan,  E. Epifanovsky,  A. T. B. Gilbert,  M. Wormit,  
 J. Kussmann,  A. W. Lange,  A. Behn,  J. Deng,  X. Feng,  D. Ghosh,  
 M. Goldey,  P. R. Horn,  L. D. Jacobson,  I. Kaliman,  R. Z. Khaliullin,  
 T. Kus,  A. Landau,  J. Liu,  E. I. Proynov,  Y. M. Rhee,  R. M. Richard,  
 M. A. Rohrdanz,  R. P. Steele,  E. J. Sundstrom,  H. L. Woodcock III,  
 P. M. Zimmerman,  D. Zuev,  B. Albrecht,  E. Alguire,  B. Austin,  
 S. A. Baeppler,  G. J. O. Beran,  Y. A. Bernard,  E. Berquist,  
 K. Brandhorst,  K. B. Bravaya,  S. T. Brown,  D. Casanova,  C.-M. Chang,  
 Y. Chen,  S. H. Chien,  K. D. Closser,  D. L. Crittenden,  M. Diedenhofen,  
 R. A. DiStasio Jr.,  H. Do,  A. D. Dutoi,  R. G. Edgar,  P.-T. Fang,  
 S. Fatehi,  Q. Feng,  L. Fusti-Molnar,  A. Ghysels,  
 A. Golubeva-Zadorozhnaya,  J. Gomes,  A. Gunina,  M. W. D. Hanson-Heine,  
 P. H. P. Harbach,  A. W. Hauser,  E. G. Hohenstein,  Z. C. Holden,  K. Hui,  
 T.-C. Jagau,  H. Ji,  B. Kaduk,  K. Khistyaev,  Jaehoon Kim,  Jihan Kim,  
 R. A. King,  P. Klunzinger,  D. Kosenkov,  T. Kowalczyk,  C. M. Krauter,  
 K. U. Lao,  A. Laurent,  K. V. Lawler,  S. Lehtola,  S. V. Levchenko,  
 C. Y. Lin,  Y.-S. Lin,  F. Liu,  E. Livshits,  R. C. Lochan,  A. Luenser,  
 P. Manohar,  S. F. Manzer,  S.-P. Mao,  N. Mardirossian,  A. V. Marenich,  
 L. A. Martinez-Martinez,  S. A. Maurer,  N. J. Mayhall,  K. Nanda,  
 C. M. Oana,  R. Olivares-Amaya,  D. P. O'Neill,  J. A. Parkhill,  
 T. M. Perrine,  R. Peverati,  P. A. Pieniazek,  F. Plasser,  A. Prociuk,  
 D. R. Rehn,  E. Rosta,  N. J. Russ,  N. Sergueev,  S. M. Sharada,  
 S. Sharma,  D. W. Small,  A. Sodt,  T. Stauch,  T. Stein,  D. Stuck,  
 Y.-C. Su,  A. J. W. Thom,  T. Tsuchimochi,  L. Vogt,  O. Vydrov,  T. Wang,  
 M. A. Watson,  J. Wenzel,  A. White,  C. F. Williams,  V. Vanovschi,  
 S. Yeganeh,  S. R. Yost,  Z.-Q. You,  I. Y. Zhang,  X. Zhang,  Y. Zhao,  
 B. R. Brooks,  G. K. L. Chan,  D. M. Chipman,  C. J. Cramer,  
 W. A. Goddard III,  M. S. Gordon,  W. J. Hehre,  A. Klamt,  
 H. F. Schaefer III,  M. W. Schmidt,  C. D. Sherrill,  D. G. Truhlar,  
 A. Warshel,  X. Xu,  A. Aspuru-Guzik,  R. Baer,  A. T. Bell,  N. A. Besley,  
 J.-D. Chai,  A. Dreuw,  B. D. Dunietz,  T. R. Furlani,  S. R. Gwaltney,  
 C.-P. Hsu,  Y. Jung,  J. Kong,  D. S. Lambrecht,  W. Liang,  C. Ochsenfeld,  
 V. A. Rassolov,  L. V. Slipchenko,  J. E. Subotnik,  T. Van Voorhis,  
 J. M. Herbert,  A. I. Krylov,  P. M. W. Gill,  M. Head-Gordon

 Contributors to earlier versions of Q-Chem not listed above: 
 R. D. Adamson,  J. Baker,  E. F. C. Byrd,  A. K. Chakraborty,  C.-L. Cheng,  
 H. Dachsel,  R. J. Doerksen,  G. Hawkins,  A. Heyden,  S. Hirata,  
 G. Kedziora,  F. J. Keil,  C. Kelley,  P. P. Korambath,  W. Kurlancheek,  
 A. M. Lee,  M. S. Lee,  D. Liotard,  I. Lotan,  P. E. Maslen,  N. Nair,  
 D. Neuhauser,  R. Olson,  B. Peters,  J. Ritchie,  N. E. Schultz,  
 N. Shenvi,  A. C. Simmonett,  K. S. Thanthiriwatte,  Q. Wu,  W. Zhang

 Please cite Q-Chem as follows:
 Y. Shao et al., Mol. Phys. 113, 184-215 (2015)
 DOI: 10.1080/00268976.2014.952696

 Q-Chem 4.3.0 for Intel X86 EM64T Linux

 Parts of Q-Chem use Armadillo 5.200.1 (Boston Tea Smuggler).
 http://arma.sourceforge.net/

 Q-Chem begins on Mon Mar 20 16:11:05 2017  


Host: 0

     Scratch files written to /home/nmayhall/scratch_qchem/10//
 Dec1416 |home|nmayhall|qcSoftware|qchem|qchem.svn-casman|libmdc|qstr_RNUM -1
 Using version located at /home/nmayhall/qcSoftware/qchem/qchem.svn-casman/bin/qchem

 Turning off symmetry for CASMAN

Total Memory Limit in MB = 2000
Mega-Array Size in MB = 62

Checking the input file for inconsistencies... 	...done.

 Q-Chem warning in module /home/nmayhall/qcSoftware/qchem/qchem.svn-casman/forms1/BasisType.C, line 1452:

 You are not using the predefined 5D/6D in this basis set.

Finally everything over in PARseQInput

--------------------------------------------------------------
User input:
--------------------------------------------------------------
$rem
	exchange 		hf
	unrestricted		0
	basis			6-31g*	
	aux_basis		rimp2-vdz
	scf_guess		read	
	scf_convergence		8
	purecart		1111

	symmetry		0
	sym_ignore		1

	correlation		sf-cas
	cas_n_spin_flip		1
	cas_local		1
	gui			2
$end

$development
	1sf_heis_projection	1
	scf_corresponding_orbs	1
$end

$molecule
read
$end

--------------------------------------------------------------
 ----------------------------------------------------------------
             Standard Nuclear Orientation (Angstroms)
    I     Atom           X                Y                Z
 ----------------------------------------------------------------
    1      H      -0.7385400000    -0.5406500000     0.0857600000
    2      H      -2.3134000000    -1.0174800000    -0.6701700000
    3      H      -2.0958200000     0.6554900000    -0.0114600000
    4      H      -2.2104400000    -0.7543700000     1.1199500000
    5      H       1.4767400000     4.0720300000     0.0982800000
    6      H       0.1685000000     4.6602200000     1.2054600000
    7      H       0.1828700000     2.9348000000     0.6566800000
    8      H      -0.2168600000     4.2552800000    -0.5174300000
    9      H       3.4885000000    -0.8755300000    -0.0608400000
   10      H       2.2964900000     0.4857800000    -0.0019100000
   11      H       1.9396000000    -1.0667600000     0.8599200000
   12      H       1.9158800000    -1.0096500000    -0.9502200000
   13      He     10.0000000000    10.0000000000    10.0000000000
   14      He    -10.0000000000    10.0000000000    10.0000000000
 ----------------------------------------------------------------
 Nuclear Repulsion Energy =    12.2870387774 hartrees
 There are       14 alpha and        2 beta electrons
 Requested basis set is 6-31G(d)
 There are 28 shells and 28 basis functions

Total QAlloc Memory Limit   2000 MB
Mega-Array Size        61 MB
MEM_STATIC part        62 MB

finished with qalloc call

                       Distance Matrix (Angstroms)
             H (  1)   H (  2)   H (  3)   H (  4)   H (  5)   H (  6)
   H (  2)  1.810796
   H (  3)  1.811743  1.811096
   H (  4)  1.811550  1.812280  1.811334
   H (  5)  5.117073  6.392088  4.944489  6.158997
   H (  6)  5.396804  6.474109  4.758771  5.914766  1.811990
   H (  7)  3.640563  4.859260  3.291518  4.421824  1.810857  1.810646
   H (  8)  4.861783  5.676338  4.092064  5.634888  1.811342  1.811306
   H (  9)  4.242818  5.835536  5.790604  5.821242  5.343299  6.578027
   H ( 10)  3.205098  4.894635  4.395598  4.807178  3.680111  4.838598
   H ( 11)  2.836997  4.520134  4.473261  4.169896  5.215505  6.004539
   H ( 12)  2.887761  4.238549  4.443838  4.623558  5.207271  6.312505
   He( 13) 18.019814 19.668686 18.271783 18.536629 14.346806 14.230797
   He( 14) 17.180573 17.155792 15.812187 15.974636 16.275763 14.465669
             H (  7)   H (  8)   H (  9)   H ( 10)   H ( 11)   H ( 12)
   H (  8)  1.811625
   H (  9)  5.095158  6.345343
   H ( 10)  3.301337  4.559805  1.810394
   H ( 11)  4.374916  5.905211  1.812032  1.811216
   H ( 12)  4.598275  5.696962  1.811662  1.811206  1.811196
   He( 13) 15.283675 15.748091 16.183241 15.808310 16.461600 17.506362
   He( 14) 15.521131 15.470229 20.035900 18.486813 18.669984 19.573143
             He( 13)
   He( 14) 20.000000


 Q-Chem warning in module /home/nmayhall/qcSoftware/qchem/qchem.svn-casman/forms1/BasisType.C, line 1375:

 SAD: How to set up polarization functions for non-Pople basis?

 Requested basis set is rimp2-VDZ
 There are 82 shells and 186 basis functions
 Job number = 2, Threshold = 1.00E-12
Integral type ranges set in mkLRange.C for JobNum: 2  <1-7|1-7>
Symmetry turned off temporarily
 Using the largest function pair in Schwarz integrals
Total number of integrals generated =            1004
Symmetry turned back on
 A cutoff of  1.0D-12 yielded    278 shell pairs
 There are       278 function pairs
 Job number = 11, Threshold = 1.00E-12
Integral type ranges set in mkLRange.C for JobNum: 11  <1-1|8-8>

 -------------------------------------------------------
 OpenMP Integral Computing Module                       
 Release: version 1.0, May 2013, Q-Chem Inc. Pittsburgh 
 -------------------------------------------------------
 Integral Job Info:
 Integral job number is                      11
 Integral operator is                         1
 short-range coefficients                     0
 long-range coefficients              100000000
 Omega coefficients                           0
 if combine SR and LR in K                    0
 Integral screening is                        0
 Integral computing path is                   2
 max size of driver memory is            800000
 size of driver memory is                 11780
 size of scratch memory is               800000
 max col of scratch BK array                289
 max len of scratch array in speh3            1
 max len of scratch index in speh4            2
 max int batch size is                      520
 min int batch size is                       52
 fixed nKL is                               520
 max L of basis functions is                  0
 order of int derivative is                   0
 number of shells is                         28
 number of basis is                          28
 number of cartesian basis is                28
 number of contracted shell pairs           278
 number of primitive shell pairs            794
 maxK2 (contraction) of shell pair            9
 max number of K2 of shell pair               1
 max number of CS2 of shell pair            146
 max number of PS2 of shell pair            438
 mem total for path MDJ                    6768
 -------------------------------------------------------
 Smallest overlap matrix eigenvalue = 2.11E-01
 Multipole matrices computed through 2nd order

  Scale SEOQF with 1.000000e-02/1.000000e-02/1.000000e-02

 Standard Electronic Orientation quadrupole field applied
 Nucleus-field energy     =     0.0000000006 hartrees
GuessMan:  IGuess = 1000
 Guess MOs from SCF MO coefficient file
 Reading MOs from coefficient file
 Reading MOs from coefficient file
scfman initvdwdat 
 A restricted Hartree-Fock SCF calculation will be
 performed using Geometric Direct Minimization
 SCF converges when RMS gradient is below 1.0E-08
Finding J and K together
 Job number = 22, Threshold = 1.00E-12
Integral type ranges set in mkLRange.C for JobNum: 22  <1-1|1-1>
Storing 4688.33% of integrals
Total number of integrals generated =           35033
 MakeJK  time:  CPU       0.01 s  wall       0.01 s
Fock build time:  0.01 s (CPU) 0.01 s (wall)
 ---------------------------------------
  Cycle       Energy        RMS Gradient
 ---------------------------------------
    1     -11.4718540085      9.99E-05  00000 Normal BFGS step
Finding J and K together
 Job number = 22, Threshold = 1.00E-12
Integral type ranges set in mkLRange.C for JobNum: 22  <1-1|1-1>
Storing 4688.33% of integrals
Reusing in-core integrals buffer for job 22
 MakeJK  time:  CPU       0.00 s  wall       0.00 s
Fock build time:  0.00 s (CPU) 0.00 s (wall)
    2     -11.4718540138      4.15E-10  00000 Convergence criterion met
 ---------------------------------------
 SCF time:  CPU 0.02 s  wall 0.02 s
 Obtaining Corresponding orbitals

 Forming corresponding orbitals block-by-block...
 Size of singly occupied alpha block:      12 : 12.0000
 Size of doubly occupied block:             2 : 2.0000
 Size of singly occupied beta block:        0 : 0.0000
 Size of unoccupied block:                 14 : 14.0000
 Use scf_boys =     0 (Canonical)
                    1 (Boys)
                    2 (Pipek-Mezey)
                    3 (ER)
 Build new fock matrix
 I'm here
 I'm here
 Calling AOints...
 Job number = 22, Threshold = 1.00E-12
Integral type ranges set in mkLRange.C for JobNum: 22  <1-1|1-1>
Storing 4688.33% of integrals
 done.
 E(SCF): disk=    -11.471854013812 current=    -11.471854013812 diff=   1.599e-14
 SCF   energy in the final basis set = -11.4718540138
 Total energy in the final basis set = -11.4718540138
 DevKeyword Parameters: 
 1sf_heis_projection                   1
scf_corresponding_orbs                   1


 ========================================================
                       In SF-CAS-CI                      
 ========================================================
 DevKeyword Parameters: 
 1sf_heis_projection                   1
scf_corresponding_orbs                   1

 Forming orbitals for SF-CAS calculation.
NBas   : 28
NOrb   : 28
NDOcc  : 2
NSOcc  : 12
NDVir  : 14
ISpin  : 0
e_hf: -11.47185401
 Using OPT1 Orbitals: Favg | Favg | Favg 
 A/B mix in Doubly occupied F  : 0.50000000
 A/B mix in Singly occupied F  : 0.50000000
 A/B mix in Doubly unoccupied F: 0.50000000
 Max of F(beta)ds      : 4.394e-16
 Max of F(alpha)sv     : 5.858e-12
 Max of F(average)dv   : 2.388e-11
 Orbital Energies  (D):
    1    -0.91413165    -0.91413165
    2    -0.91412587    -0.91412587
 Orbital Energies  (S):
    3    -0.36534795    -0.36534795
    4    -0.35737020    -0.35737020
    5    -0.35288709    -0.35288709
    6    -0.14406826    -0.14406826
    7    -0.13941204    -0.13941204
    8    -0.13061317    -0.13061317
    9    -0.12848039    -0.12848039
   10    -0.12672528    -0.12672528
   11    -0.12467206    -0.12467206
   12    -0.12132331    -0.12132331
   13    -0.11428684    -0.11428684
   14    -0.10702379    -0.10702379
 Orbital Energies  (V):
   15     0.92207480     0.92207480
   16     0.94496622     0.94496622
   17     0.97752454     0.97752454
   18     0.98955160     0.98955160
   19     1.00023241     1.00023241
   20     1.01081100     1.01081100
   21     1.03057098     1.03057098
   22     1.05631589     1.05631589
   23     1.06692057     1.06692057
   24     1.14713375     1.14713375
   25     1.19399907     1.19399907
   26     1.23646241     1.23646241
   27     1.39985432     1.39985432
   28     1.39986009     1.39986009
 tr(Pa)     :   14.0000000000
 tr(Pb)     :    2.0000000000
 E(core) with new P : -37.66956154
 E(HF) with new P   : -11.47185401
 Difference in Ehf  :  -8.8818e-15

 Number of spin flips: 1
 Use cas_local =    0 (Canonical)
                    1 (Boys)
                    2 (Pipek-Mezey)
                    3 (ER)
 Using Boys orbitals in casman
 
 
 
Calling Get_Boys in C++
 
 
 
Orbital 8 Variance 8.39605711
Orbital 2 Variance 16.70437863
Orbital 12 Variance 20.85276085
Orbital 9 Variance 22.03249851
Orbital 4 Variance 22.86060426
Orbital 7 Variance 23.01704341
Orbital 3 Variance 23.44226266
Orbital 5 Variance 25.55079475
Orbital 11 Variance 26.16767458
Orbital 1 Variance 27.11521829
Orbital 6 Variance 29.52789917
Orbital 10 Variance 31.56689096
          ***** NUMBER OF SADDLE POINTS SO FAR = 0 ******

Initially in boys_jacobi.C before sweep, get_boys, boysval = 184.404149
In BOYS_JACOBI SWEEPS for get_boys, ending in round     5  because max_diff = 8.438674e-07


---> BEGIN 2nd Der Calculation    ******  
Guessing MaxD =  20 and MinD = 10
in get_boys.C: p = 0 guessthresh  52.5828377541 numsofar 18 MinD 10
in get_boys.C: p = 1 guessthresh  52.0828377541 numsofar 18 MinD 10
in get_boys.C: p = 2 guessthresh  51.8328377541 numsofar 18 MinD 10
in get_boys.C: p = 3 guessthresh  51.7078377541 numsofar 5 MinD 10
DimInGuess 5 mineval  51.5828377541 guessthresh  51.7078377541
round 0 sizeofsub 5 eval0 5.096157e+01 diffeval0 1.000500e+05 length_qM 1.114860e+00 thresh 1.000000e-08
round 1 sizeofsub 6 eval0 5.036271e+01 diffeval0 5.988623e-01 length_qM 1.070455e-01 thresh 1.000000e-08
round 2 sizeofsub 7 eval0 5.036202e+01 diffeval0 6.894476e-04 length_qM 2.337864e-01 thresh 1.000000e-08
round 3 sizeofsub 8 eval0 5.036084e+01 diffeval0 1.180719e-03 length_qM 1.563230e-02 thresh 1.000000e-08
round 4 sizeofsub 9 eval0 5.036083e+01 diffeval0 9.613008e-06 length_qM 2.788933e-02 thresh 1.000000e-08
round 5 sizeofsub 10 eval0 5.036081e+01 diffeval0 2.212393e-05 length_qM 6.399648e-03 thresh 1.000000e-08
round 6 sizeofsub 11 eval0 5.036081e+01 diffeval0 2.016706e-06 length_qM 1.250938e-03 thresh 1.000000e-08
round 7 sizeofsub 12 eval0 5.036081e+01 diffeval0 5.753492e-09 length_qM 8.949472e-06 thresh 1.000000e-08
round 8 sizeofsub 13 eval0 5.036081e+01 diffeval0 2.454215e-11 length_qM 2.578766e-05 thresh 1.000000e-08
round 9 sizeofsub 14 eval0 5.036081e+01 diffeval0 1.647749e-11 length_qM 2.111408e-05 thresh 1.000000e-08
round 10 sizeofsub 15 eval0 5.036081e+01 diffeval0 2.735590e-12 length_qM 4.312558e-07 thresh 1.000000e-08
Converged to smallest eigenvalue: eval0 5.036081e+01

Success!!! No Negative Eigenvalues: Ending Get Boys in C++ ...Bye Bye
Orbital 12 Variance 2.76563671
Orbital 9 Variance 2.77106428
Orbital 4 Variance 2.77264124
Orbital 3 Variance 2.77555823
Orbital 5 Variance 2.77557532
Orbital 11 Variance 2.77587065
Orbital 7 Variance 2.77620845
Orbital 2 Variance 2.77624340
Orbital 1 Variance 2.77647412
Orbital 8 Variance 2.77662868
Orbital 10 Variance 2.77668340
Orbital 6 Variance 2.77724303
EXECUTING ORTHO_FUNC DESTRUCTOR

 Dimensions of orbital sub-spaces:    
 Number Hole Orbs:Alpha:Beta:       2    2    2
 Number Active Orbs:Alpha:Beta:    12   11    1
 Number Part Orbs:Alpha:Beta:      14    0    0

 Dimensions in SF-RAS-hp calculation: 
 Number of active space determinants:  144
 Number of hole space determinants:    1608
 Number of part space determinants:    11256
 Number of hole-part determinants:     130060
 Total 1x space:                       13008
 Total singles space:                  143068
 REM_MEM_TOT: 2000
 Memory Used: 0
 Memory Left: 2000
 Memory Need: 2
 Constructing 1e MO integrals
 Form (P|Q)**(-1/2)...
 Job number = 66, Threshold = 1.00E-12
Integral type ranges set in mkLRange.C for JobNum: 66  <2-7|2-7>
Symmetry turned off temporarily
Storing 4688.33% of integrals
Total number of integrals generated =           19965
Symmetry turned back on
 Forming (pq|P)...
 Forming Active-Active (aa|P) integrals...

 Entering first-index batching code with I1Strt =    3 batch size =   12
 Job number = 65, Threshold = 1.00E-12
Integral type ranges set in mkLRange.C for JobNum: 65  <1-1|2-7>
Symmetry turned off temporarily
Storing 4688.33% of integrals
Total number of integrals generated =           55044
Symmetry turned back on
 Forming Active-Active B integrals...
 Contracting B matrices to form 2e integrals. 
 Forming 2J-K over o,v with exact integrals
 Calling AOints... Job number = 22, Threshold = 1.00E-12
Integral type ranges set in mkLRange.C for JobNum: 22  <1-1|1-1>
Storing 4688.33% of integrals
Total number of integrals generated =           35033
 done.

 ROHF energy found on disk: 
 E(ROHF):         -11.47185401
-11.47185401
 First 10 Diagonal elements of H: 
 11111111111_ | 1___________        -11.07918903
 11111111111_ | _1__________        -10.91590475
 11111111111_ | __1_________        -10.93171285
 11111111111_ | ___1________        -10.99246380
 11111111111_ | ____1_______        -11.07873059
 11111111111_ | _____1______        -10.97374267
 11111111111_ | ______1_____        -11.07901002
 11111111111_ | _______1____        -10.90495335
 11111111111_ | ________1___        -10.99547439
 11111111111_ | _________1__        -10.91041879
 Fill S2_CAS Matrix...  done.
 Fill H_CAS Matrix...  done.

 Diagonalizing H_CAS 
 Entering cast_sfcas_to_sfcis
 ===================================================================
 Theory           State:          Energy (au)       (eV)       <S2>
 -------------------------------------------------------------------
 SF-CAS               1:       -11.5300026702     0.0000    30.0000
 SF-CAS               2:       -11.5287525104     0.0340    30.0000
 SF-CAS               3:       -11.5285527109     0.0395    30.0000
 SF-CAS               4:       -11.5283263662     0.0456    30.0000
 SF-CAS               5:       -11.5281817149     0.0496    30.0000
 SF-CAS               6:       -11.5281599921     0.0501    30.0000
 SF-CAS               7:       -11.5281100120     0.0515    30.0000
 SF-CAS               8:       -11.5280295970     0.0537    30.0000
 SF-CAS               9:       -11.5279892338     0.0548    30.0000
 SF-CAS              10:       -11.4730537863     1.5497    30.0000
 SF-CAS              11:       -11.4721747112     1.5736    30.0000
 SF-CAS              12:       -11.4718540138     1.5823    42.0000
 SF-CAS              13:       -11.2093621211     8.7252    30.0000
 SF-CAS              14:       -11.2036848405     8.8796    30.0000
 SF-CAS              15:       -11.2034814337     8.8852    30.0000
 SF-CAS              16:       -11.2032773964     8.8907    30.0000
 SF-CAS              17:       -11.2025678686     8.9100    30.0000
 SF-CAS              18:       -11.2020816960     8.9233    30.0000
 SF-CAS              19:       -11.2019520208     8.9268    30.0000
 SF-CAS              20:       -11.2017692327     8.9318    30.0000
 SF-CAS              21:       -11.2016555770     8.9349    30.0000
 SF-CAS              22:       -11.1825136828     9.4557    30.0000
 SF-CAS              23:       -11.1724595974     9.7293    30.0000
 SF-CAS              24:       -11.1703331994     9.7872    30.0000
 SF-CAS              25:       -11.1636660265     9.9686    30.0000
 SF-CAS              26:       -11.1597855187    10.0742    30.0000
 SF-CAS              27:       -11.1580031286    10.1227    30.0000
 SF-CAS              28:       -11.1539417289    10.2332    30.0000
 SF-CAS              29:       -11.1474953220    10.4087    30.0000
 SF-CAS              30:       -11.1445536725    10.4887    30.0000
 SF-CAS              31:       -11.1438600493    10.5076    30.0000
 SF-CAS              32:       -11.1419498688    10.5596    30.0000
 SF-CAS              33:       -11.1403264979    10.6037    30.0000
 SF-CAS              34:       -11.1377096374    10.6749    30.0000
 SF-CAS              35:       -11.1328872632    10.8062    30.0000
 SF-CAS              36:       -11.1268259768    10.9711    30.0000
 SF-CAS              37:       -11.1266655893    10.9755    30.0000
 SF-CAS              38:       -11.1213052977    11.1213    30.0000
 SF-CAS              39:       -11.1192609012    11.1770    30.0000
 SF-CAS              40:       -11.0874887323    12.0415    30.0000
 SF-CAS              41:       -11.0861142101    12.0789    30.0000
 SF-CAS              42:       -11.0860320863    12.0812    30.0000
 SF-CAS              43:       -11.0858221838    12.0869    30.0000
 SF-CAS              44:       -11.0856002268    12.0929    30.0000
 SF-CAS              45:       -11.0855416469    12.0945    30.0000
 SF-CAS              46:       -11.0832197525    12.1577    30.0000
 SF-CAS              47:       -11.0830650554    12.1619    30.0000
 SF-CAS              48:       -11.0818291409    12.1955    30.0000
 SF-CAS              49:       -11.0816886224    12.1994    30.0000
 SF-CAS              50:       -11.0815721270    12.2025    30.0000
 SF-CAS              51:       -11.0813986433    12.2073    30.0000
 SF-CAS              52:       -11.0812097134    12.2124    30.0000
 SF-CAS              53:       -11.0797338583    12.2526    30.0000
 SF-CAS              54:       -11.0793033617    12.2643    30.0000
 SF-CAS              55:       -11.0792099441    12.2668    30.0000
 SF-CAS              56:       -11.0787115914    12.2804    30.0000
 SF-CAS              57:       -11.0769841522    12.3274    30.0000
 SF-CAS              58:       -10.9864781857    14.7902    30.0000
 SF-CAS              59:       -10.9792751563    14.9862    30.0000
 SF-CAS              60:       -10.9786690547    15.0027    30.0000
 SF-CAS              61:       -10.9719208422    15.1863    30.0000
 SF-CAS              62:       -10.9671791184    15.3154    30.0000
 SF-CAS              63:       -10.9657162920    15.3552    30.0000
 SF-CAS              64:       -10.9622386055    15.4498    30.0000
 SF-CAS              65:       -10.9582768251    15.5576    30.0000
 SF-CAS              66:       -10.9521590226    15.7241    30.0000
 SF-CAS              67:       -10.9503127409    15.7743    30.0000
 SF-CAS              68:       -10.9465787371    15.8759    30.0000
 SF-CAS              69:       -10.9461415753    15.8878    30.0000
 SF-CAS              70:       -10.9441482036    15.9421    30.0000
 SF-CAS              71:       -10.9426968795    15.9816    30.0000
 SF-CAS              72:       -10.9422864209    15.9927    30.0000
 SF-CAS              73:       -10.9400681628    16.0531    30.0000
 SF-CAS              74:       -10.9388306621    16.0868    30.0000
 SF-CAS              75:       -10.9384163491    16.0980    30.0000
 SF-CAS              76:       -10.9374608553    16.1240    30.0000
 SF-CAS              77:       -10.9364806728    16.1507    30.0000
 SF-CAS              78:       -10.9359716135    16.1646    30.0000
 SF-CAS              79:       -10.9349459127    16.1925    30.0000
 SF-CAS              80:       -10.9330110824    16.2451    30.0000
 SF-CAS              81:       -10.9319117802    16.2750    30.0000
 SF-CAS              82:       -10.9304971969    16.3135    30.0000
 SF-CAS              83:       -10.9290980917    16.3516    30.0000
 SF-CAS              84:       -10.9261498676    16.4318    30.0000
 SF-CAS              85:       -10.9255227690    16.4489    30.0000
 SF-CAS              86:       -10.9250109970    16.4628    30.0000
 SF-CAS              87:       -10.9240836538    16.4881    30.0000
 SF-CAS              88:       -10.9229682014    16.5184    30.0000
 SF-CAS              89:       -10.9218188330    16.5497    30.0000
 SF-CAS              90:       -10.9210996151    16.5693    30.0000
 SF-CAS              91:       -10.9206122654    16.5825    30.0000
 SF-CAS              92:       -10.9186982602    16.6346    30.0000
 SF-CAS              93:       -10.9180944359    16.6510    30.0000
 SF-CAS              94:       -10.9161242308    16.7046    30.0000
 SF-CAS              95:       -10.9159840673    16.7085    30.0000
 SF-CAS              96:       -10.9155065522    16.7215    30.0000
 SF-CAS              97:       -10.9145976150    16.7462    30.0000
 SF-CAS              98:       -10.9142113397    16.7567    30.0000
 SF-CAS              99:       -10.9138964753    16.7653    30.0000
 SF-CAS             100:       -10.9101240702    16.8679    30.0000
 SF-CAS             101:       -10.9099473805    16.8727    30.0000
 SF-CAS             102:       -10.9091322686    16.8949    30.0000
 SF-CAS             103:       -10.9080266469    16.9250    30.0000
 SF-CAS             104:       -10.9064962803    16.9666    30.0000
 SF-CAS             105:       -10.9051441923    17.0034    30.0000
 SF-CAS             106:       -10.9045852994    17.0186    30.0000
 SF-CAS             107:       -10.9037098111    17.0425    30.0000
 SF-CAS             108:       -10.9013425345    17.1069    30.0000
 SF-CAS             109:       -10.9009538415    17.1175    30.0000
 SF-CAS             110:       -10.9001588494    17.1391    30.0000
 SF-CAS             111:       -10.8990713458    17.1687    30.0000
 SF-CAS             112:       -10.8967316993    17.2323    30.0000
 SF-CAS             113:       -10.8930889449    17.3315    30.0000
 SF-CAS             114:       -10.8913393473    17.3791    30.0000
 SF-CAS             115:       -10.8902562296    17.4086    30.0000
 SF-CAS             116:       -10.8884715962    17.4571    30.0000
 SF-CAS             117:       -10.8873663207    17.4872    30.0000
 SF-CAS             118:       -10.8862290743    17.5181    30.0000
 SF-CAS             119:       -10.8856578984    17.5337    30.0000
 SF-CAS             120:       -10.8844947706    17.5653    30.0000
 SF-CAS             121:       -10.8842009628    17.5733    30.0000
 SF-CAS             122:       -10.8833640166    17.5961    30.0000
 SF-CAS             123:       -10.8822921164    17.6253    30.0000
 SF-CAS             124:       -10.8815562856    17.6453    30.0000
 SF-CAS             125:       -10.8792819534    17.7072    30.0000
 SF-CAS             126:       -10.8761382196    17.7927    30.0000
 SF-CAS             127:       -10.7140367260    22.2038    30.0000
 SF-CAS             128:       -10.7025117237    22.5174    30.0000
 SF-CAS             129:       -10.6994761305    22.6000    30.0000
 SF-CAS             130:       -10.6963726953    22.6844    30.0000
 SF-CAS             131:       -10.6940877050    22.7466    30.0000
 SF-CAS             132:       -10.6881761202    22.9075    30.0000
 SF-CAS             133:       -10.6838435991    23.0254    30.0000
 SF-CAS             134:       -10.6798923944    23.1329    30.0000
 SF-CAS             135:       -10.6784559492    23.1720    30.0000
 SF-CAS             136:       -10.6743679491    23.2832    30.0000
 SF-CAS             137:       -10.6718272060    23.3524    30.0000
 SF-CAS             138:       -10.6704364708    23.3902    30.0000
 SF-CAS             139:       -10.6691303811    23.4258    30.0000
 SF-CAS             140:       -10.6674658888    23.4710    30.0000
 SF-CAS             141:       -10.6613752783    23.6368    30.0000
 SF-CAS             142:       -10.6607993259    23.6525    30.0000
 SF-CAS             143:       -10.6569854551    23.7562    30.0000
 SF-CAS             144:       -10.6450088130    24.0821    30.0000
 ===================================================================

              Active Space Coefficients > 0.20
 -------------------------------------------------------------------
 State  1                       Configuration         Coeff.   <S^2>
 -------------------------------------------------------------------
                  11111111111_ | ___________1       0.656069  31.000
                  11111111_111 | ________1___       0.292767  31.000
                  111111_11111 | ______1_____       0.200102  31.000
                  111_11111111 | ___1________      -0.209445  31.000
                  11_111111111 | __1_________      -0.356190  31.000
                  _11111111111 | 1___________       0.227032  31.000
 -------------------------------------------------------------------
 State  2                       Configuration         Coeff.   <S^2>
 -------------------------------------------------------------------
                  1111111111_1 | __________1_       0.636741  31.000
                  1111111_1111 | _______1____       0.303558  31.000
                  11111_111111 | _____1______       0.320850  31.000
                  1111_1111111 | ____1_______      -0.253326  31.000
                  11_111111111 | __1_________       0.272347  31.000
 -------------------------------------------------------------------
 State  3                       Configuration         Coeff.   <S^2>
 -------------------------------------------------------------------
                  11111111111_ | ___________1       0.371166  31.000
                  1111111111_1 | __________1_      -0.228557  31.000
                  11111111_111 | ________1___      -0.222555  31.000
                  11111_111111 | _____1______       0.205707  31.000
                  1111_1111111 | ____1_______       0.260838  31.000
                  111_11111111 | ___1________       0.213581  31.000
                  11_111111111 | __1_________       0.643584  31.000
 -------------------------------------------------------------------
 State  4                       Configuration         Coeff.   <S^2>
 -------------------------------------------------------------------
                  11111111_111 | ________1___      -0.206459  31.000
                  111111_11111 | ______1_____       0.254572  31.000
                  11111_111111 | _____1______      -0.462401  31.000
                  1111_1111111 | ____1_______      -0.479196  31.000
                  111_11111111 | ___1________       0.247145  31.000
                  _11111111111 | 1___________       0.404187  31.000
 -------------------------------------------------------------------
 State  5                       Configuration         Coeff.   <S^2>
 -------------------------------------------------------------------
                  11111111_111 | ________1___      -0.565322  31.000
                  111_11111111 | ___1________      -0.682544  31.000
 -------------------------------------------------------------------
 State  6                       Configuration         Coeff.   <S^2>
 -------------------------------------------------------------------
                  1111111111_1 | __________1_      -0.313185  31.000
                  111111111_11 | _________1__      -0.338462  31.000
                  11111111_111 | ________1___       0.327442  31.000
                  1111111_1111 | _______1____      -0.245261  31.000
                  11111_111111 | _____1______       0.384040  31.000
                  1111_1111111 | ____1_______      -0.415790  31.000
                  1_1111111111 | _1__________       0.269277  31.000
 -------------------------------------------------------------------
 State  7                       Configuration         Coeff.   <S^2>
 -------------------------------------------------------------------
                  111111111_11 | _________1__      -0.610479  31.000
                  1111111_1111 | _______1____       0.245249  31.000
                  11111_111111 | _____1______      -0.294937  31.000
                  1_1111111111 | _1__________       0.491454  31.000
 -------------------------------------------------------------------
 State  8                       Configuration         Coeff.   <S^2>
 -------------------------------------------------------------------
                  1111111111_1 | __________1_      -0.208361  31.000
                  111111111_11 | _________1__      -0.309784  31.000
                  1111111_1111 | _______1____       0.622727  31.000
                  1_1111111111 | _1__________      -0.520621  31.000
 -------------------------------------------------------------------
 State  9                       Configuration         Coeff.   <S^2>
 -------------------------------------------------------------------
                  111111_11111 | ______1_____      -0.697125  31.000
                  _11111111111 | 1___________       0.577493  31.000
 -------------------------------------------------------------------
 State  10                      Configuration         Coeff.   <S^2>
 -------------------------------------------------------------------
                  11111111111_ | ___________1      -0.336997  31.000
                  11111111_111 | ________1___      -0.345036  31.000
                  111111_11111 | ______1_____       0.359358  31.000
                  11111_111111 | _____1______       0.354526  31.000
                  1111_1111111 | ____1_______       0.357374  31.000
                  111_11111111 | ___1________       0.347386  31.000
                  11_111111111 | __1_________      -0.361669  31.000
                  _11111111111 | 1___________       0.359373  31.000
 -------------------------------------------------------------------
 State  11                      Configuration         Coeff.   <S^2>
 -------------------------------------------------------------------
                  11111111111_ | ___________1       0.203156  31.000
                  1111111111_1 | __________1_       0.402914  31.000
                  111111111_11 | _________1__      -0.409125  31.000
                  11111111_111 | ________1___      -0.205883  31.000
                  1111111_1111 | _______1____      -0.410132  31.000
                  111111_11111 | ______1_____      -0.204159  31.000
                  11111_111111 | _____1______       0.202218  31.000
                  1111_1111111 | ____1_______      -0.200636  31.000
                  111_11111111 | ___1________       0.205929  31.000
                  11_111111111 | __1_________      -0.205942  31.000
                  1_1111111111 | _1__________      -0.409943  31.000
                  _11111111111 | 1___________      -0.204191  31.000
 -------------------------------------------------------------------
 State  12                      Configuration         Coeff.   <S^2>
 -------------------------------------------------------------------
                  11111111111_ | ___________1       0.288675  31.000
                  1111111111_1 | __________1_      -0.288675  31.000
                  111111111_11 | _________1__       0.288675  31.000
                  11111111_111 | ________1___      -0.288675  31.000
                  1111111_1111 | _______1____       0.288675  31.000
                  111111_11111 | ______1_____      -0.288675  31.000
                  11111_111111 | _____1______       0.288675  31.000
                  1111_1111111 | ____1_______      -0.288675  31.000
                  111_11111111 | ___1________       0.288675  31.000
                  11_111111111 | __1_________      -0.288675  31.000
                  1_1111111111 | _1__________       0.288675  31.000
                  _11111111111 | 1___________      -0.288675  31.000
 -------------------------------------------------------------------
 State  13                      Configuration         Coeff.   <S^2>
 -------------------------------------------------------------------
                  11111111111_ | 1___________      -0.301543  30.000
                  11111111111_ | ___1________      -0.248574  30.000
                  11111111111_ | ____1_______       0.299426  30.000
                  11111111111_ | _____1______      -0.229117  30.000
                  11111111111_ | ______1_____       0.300567  30.000
                  11111111111_ | ________1___       0.249549  30.000
                  11_111111111 | ___1________       0.209246  30.000
                  11_111111111 | _____1______       0.248824  30.000
 -------------------------------------------------------------------
 State  14                      Configuration         Coeff.   <S^2>
 -------------------------------------------------------------------
                  11111111111_ | 1___________       0.259366  30.000
                  11111111111_ | ____1_______      -0.208521  30.000
                  11111111111_ | ______1_____      -0.257732  30.000
                  11111_111111 | ___1________      -0.214091  30.000
                  11111_111111 | ________1___       0.217754  30.000
                  1111_1111111 | 1___________      -0.205133  30.000
                  1111_1111111 | ______1_____       0.206115  30.000
                  11_111111111 | __1_________       0.220782  31.000
                  11_111111111 | ___1________       0.345555  30.000
                  11_111111111 | _____1______       0.314045  30.000
                  11_111111111 | ________1___      -0.341192  30.000
 -------------------------------------------------------------------
 State  15                      Configuration         Coeff.   <S^2>
 -------------------------------------------------------------------
                  11111111111_ | ____1_______      -0.223620  30.000
                  111111_11111 | 1___________      -0.299493  30.000
                  1111_1111111 | 1___________       0.299418  30.000
                  1111_1111111 | ____1_______       0.235126  31.000
                  1111_1111111 | ______1_____      -0.314942  30.000
                  1111_1111111 | ___________1       0.440986  30.000
                  _11111111111 | ______1_____      -0.331668  30.000
                  _11111111111 | ___________1       0.243854  30.000
 -------------------------------------------------------------------
 State  16                      Configuration         Coeff.   <S^2>
 -------------------------------------------------------------------
                  111111_11111 | 1___________       0.283279  30.000
                  111111_11111 | ____1_______      -0.396917  30.000
                  111111_11111 | ______1_____       0.246367  31.000
                  111111_11111 | ___________1       0.428847  30.000
                  _11111111111 | 1___________      -0.226184  31.000
                  _11111111111 | ____1_______      -0.385363  30.000
                  _11111111111 | ______1_____      -0.239262  30.000
                  _11111111111 | ___________1       0.393794  30.000
 -------------------------------------------------------------------
 State  17                      Configuration         Coeff.   <S^2>
 -------------------------------------------------------------------
                  1111111111_1 | _________1__      -0.215927  30.000
                  11111111_111 | __1_________      -0.253244  30.000
                  11111111_111 | ___1________       0.287735  30.000
                  11111_111111 | __1_________       0.360295  30.000
                  11111_111111 | ___1________      -0.337727  30.000
                  11111_111111 | _____1______       0.220431  31.000
                  11111_111111 | ________1___       0.291232  30.000
 -------------------------------------------------------------------
 State  18                      Configuration         Coeff.   <S^2>
 -------------------------------------------------------------------
                  1111111111_1 | _1__________      -0.310157  30.000
                  1111111111_1 | _______1____      -0.292395  30.000
                  1111111111_1 | _________1__       0.292377  30.000
                  11111111_111 | __1_________      -0.328384  30.000
                  11111111_111 | ___1________       0.246818  30.000
                  11111111_111 | _____1______       0.274924  30.000
                  11111_111111 | ___1________      -0.207794  30.000
                  111_11111111 | __1_________       0.204978  30.000
                  111_11111111 | _____1______      -0.266223  30.000
 -------------------------------------------------------------------
 State  19                      Configuration         Coeff.   <S^2>
 -------------------------------------------------------------------
                  1111111111_1 | _1__________       0.237626  30.000
                  1111111111_1 | _______1____       0.221203  30.000
                  1111111111_1 | _________1__      -0.210874  30.000
                  11111111_111 | _____1______       0.264162  30.000
                  11111_111111 | __1_________      -0.203962  30.000
                  11111_111111 | ________1___      -0.275300  30.000
                  111_11111111 | __1_________       0.393084  30.000
                  111_11111111 | ___1________       0.233373  31.000
                  111_11111111 | _____1______      -0.325566  30.000
                  111_11111111 | ________1___       0.331309  30.000
 -------------------------------------------------------------------
 State  20                      Configuration         Coeff.   <S^2>
 -------------------------------------------------------------------
                  111111111_11 | _1__________      -0.405580  30.000
                  111111111_11 | _______1____      -0.351565  30.000
                  111111111_11 | _________1__      -0.270240  31.000
                  111111111_11 | __________1_      -0.458703  30.000
                  1111111_1111 | _1__________      -0.355453  30.000
                  1111111_1111 | __________1_      -0.312377  30.000
                  1_1111111111 | _______1____      -0.244287  30.000
 -------------------------------------------------------------------
 State  21                      Configuration         Coeff.   <S^2>
 -------------------------------------------------------------------
                  1111111_1111 | _________1__       0.356781  30.000
                  1111111_1111 | __________1_      -0.350478  30.000
                  1_1111111111 | _1__________      -0.270834  31.000
                  1_1111111111 | _______1____       0.345518  30.000
                  1_1111111111 | _________1__      -0.428098  30.000
                  1_1111111111 | __________1_       0.445873  30.000
 -------------------------------------------------------------------
 State  22                      Configuration         Coeff.   <S^2>
 -------------------------------------------------------------------
                  11111111111_ | __1_________      -0.329919  30.000
                  11111111111_ | ___1________       0.409276  30.000
                  11111111111_ | _____1______       0.382916  30.000
                  11111111111_ | ________1___      -0.415805  30.000
 -------------------------------------------------------------------
 State  23                      Configuration         Coeff.   <S^2>
 -------------------------------------------------------------------
                  11111111_111 | 1___________       0.327700  30.000
                  11111111_111 | ____1_______      -0.330914  30.000
                  11111111_111 | ______1_____      -0.341114  30.000
                  11111111_111 | ___________1       0.471193  30.000
                  111_11111111 | 1___________      -0.296837  30.000
                  111_11111111 | ____1_______       0.290631  30.000
                  111_11111111 | ______1_____       0.284934  30.000
                  111_11111111 | ___________1      -0.405985  30.000
 -------------------------------------------------------------------
 State  24                      Configuration         Coeff.   <S^2>
 -------------------------------------------------------------------
                  1111111111_1 | 1___________       0.231305  30.000
                  1111111111_1 | ____1_______      -0.296311  30.000
                  1111111111_1 | ______1_____      -0.243512  30.000
                  1111111111_1 | ___________1       0.300639  30.000
                  11111_111111 | 1___________      -0.247484  30.000
                  11111_111111 | ____1_______       0.269196  30.000
                  11111_111111 | ______1_____       0.249905  30.000
                  11111_111111 | ___________1      -0.335626  30.000
                  111_11111111 | ___________1       0.220647  30.000
 -------------------------------------------------------------------
 State  25                      Configuration         Coeff.   <S^2>
 -------------------------------------------------------------------
                  1111111111_1 | ___1________      -0.207181  30.000
                  1111111111_1 | ____1_______      -0.213203  30.000
                  1111111111_1 | _____1______      -0.252707  30.000
                  1111111111_1 | ________1___       0.213798  30.000
                  1111111111_1 | ___________1       0.240495  30.000
                  11111_111111 | _________1__      -0.204900  30.000
                  11111_111111 | __________1_       0.239837  30.000
 -------------------------------------------------------------------
 State  26                      Configuration         Coeff.   <S^2>
 -------------------------------------------------------------------
                  11111111111_ | __________1_      -0.223331  30.000
                  11111_111111 | _________1__      -0.208467  30.000
                  11111_111111 | __________1_       0.210375  30.000
                  1111_1111111 | _1__________       0.252315  30.000
                  1111_1111111 | _______1____       0.230996  30.000
                  1111_1111111 | _________1__      -0.226572  30.000
                  1111_1111111 | __________1_       0.296807  30.000
 -------------------------------------------------------------------
 State  27                      Configuration         Coeff.   <S^2>
 -------------------------------------------------------------------
                  11111_111111 | _1__________      -0.290602  30.000
                  11111_111111 | _______1____      -0.281569  30.000
                  11111_111111 | _________1__       0.333747  30.000
                  11111_111111 | __________1_      -0.360104  30.000
                  1111_1111111 | _1__________       0.233635  30.000
                  1111_1111111 | _______1____       0.213302  30.000
                  1111_1111111 | _________1__      -0.211154  30.000
                  1111_1111111 | __________1_       0.284110  30.000
 -------------------------------------------------------------------
 State  28                      Configuration         Coeff.   <S^2>
 -------------------------------------------------------------------
                  1111111111_1 | 1___________       0.212463  30.000
                  1111111111_1 | __1_________      -0.212050  30.000
                  1111111111_1 | ___1________       0.210618  30.000
                  1111111111_1 | ____1_______      -0.274809  30.000
                  1111111111_1 | _____1______       0.273588  30.000
                  1111111111_1 | ______1_____      -0.224702  30.000
                  1111111111_1 | ________1___      -0.215068  30.000
                  1111111111_1 | ___________1       0.203806  30.000
 -------------------------------------------------------------------
 State  29                      Configuration         Coeff.   <S^2>
 -------------------------------------------------------------------
                  11111111111_ | _1__________      -0.230608  30.000
                  11111111111_ | _______1____      -0.219712  30.000
                  11111111111_ | _________1__       0.226778  30.000
                  11111111111_ | __________1_      -0.277251  30.000
                  111111_11111 | _1__________       0.213080  30.000
                  111111_11111 | _______1____       0.205347  30.000
                  111111_11111 | _________1__      -0.204244  30.000
                  111111_11111 | __________1_       0.251858  30.000
                  1111_1111111 | _1__________      -0.202297  30.000
                  1111_1111111 | __________1_      -0.242008  30.000
 -------------------------------------------------------------------
 State  30                      Configuration         Coeff.   <S^2>
 -------------------------------------------------------------------
                  111111_11111 | __1_________      -0.302860  30.000
                  111111_11111 | ___1________       0.352004  30.000
                  111111_11111 | _____1______       0.339729  30.000
                  111111_11111 | ________1___      -0.371238  30.000
                  _11111111111 | __1_________      -0.282882  30.000
                  _11111111111 | ___1________       0.343385  30.000
                  _11111111111 | _____1______       0.318819  30.000
                  _11111111111 | ________1___      -0.334189  30.000
 -------------------------------------------------------------------
 State  31                      Configuration         Coeff.   <S^2>
 -------------------------------------------------------------------
                  111111111_11 | __1_________       0.249991  30.000
                  111111111_11 | ___1________      -0.270365  30.000
                  111111111_11 | _____1______      -0.329894  30.000
                  111111111_11 | ________1___       0.270826  30.000
                  111111111_11 | ___________1       0.232476  30.000
                  1_1111111111 | _____1______      -0.209862  30.000
 -------------------------------------------------------------------
 State  32                      Configuration         Coeff.   <S^2>
 -------------------------------------------------------------------
                  11111_111111 | ___________1       0.208907  30.000
                  11_111111111 | 1___________      -0.300059  30.000
                  11_111111111 | ____1_______       0.304782  30.000
                  11_111111111 | ______1_____       0.300625  30.000
                  11_111111111 | ___________1      -0.358219  30.000
 -------------------------------------------------------------------
 State  33                      Configuration         Coeff.   <S^2>
 -------------------------------------------------------------------
                  1111111111_1 | _____1______      -0.228746  30.000
                  1111_1111111 | __1_________      -0.203110  30.000
                  1111_1111111 | ___1________       0.242479  30.000
                  1111_1111111 | _____1______       0.235676  30.000
                  1111_1111111 | ________1___      -0.240951  30.000
                  11_111111111 | ___________1       0.221795  30.000
 -------------------------------------------------------------------
 State  34                      Configuration         Coeff.   <S^2>
 -------------------------------------------------------------------
                  1111111_1111 | 1___________       0.241557  30.000
                  1111111_1111 | __1_________       0.204041  30.000
                  1111111_1111 | ___1________      -0.230145  30.000
                  1111111_1111 | ____1_______      -0.284538  30.000
                  1111111_1111 | _____1______      -0.257976  30.000
                  1111111_1111 | ______1_____      -0.250282  30.000
                  1111111_1111 | ________1___       0.235897  30.000
                  1111111_1111 | ___________1       0.309586  30.000
                  1_1111111111 | 1___________      -0.259403  30.000
                  1_1111111111 | ____1_______       0.313597  30.000
                  1_1111111111 | ______1_____       0.261168  30.000
                  1_1111111111 | ___________1      -0.288016  30.000
 -------------------------------------------------------------------
 State  35                      Configuration         Coeff.   <S^2>
 -------------------------------------------------------------------
                  11111111_111 | _1__________       0.318031  30.000
                  11111111_111 | _______1____       0.314162  30.000
                  11111111_111 | _________1__      -0.338857  30.000
                  11111111_111 | __________1_       0.373449  30.000
                  111_11111111 | _1__________      -0.330092  30.000
                  111_11111111 | _______1____      -0.316467  30.000
                  111_11111111 | _________1__       0.347224  30.000
                  111_11111111 | __________1_      -0.374112  30.000
 -------------------------------------------------------------------
 State  36                      Configuration         Coeff.   <S^2>
 -------------------------------------------------------------------
                  111111_11111 | _1__________      -0.327777  30.000
                  111111_11111 | _______1____      -0.318847  30.000
                  111111_11111 | _________1__       0.313162  30.000
                  111111_11111 | __________1_      -0.371366  30.000
                  _11111111111 | _1__________      -0.342712  30.000
                  _11111111111 | _______1____      -0.324292  30.000
                  _11111111111 | _________1__       0.324177  30.000
                  _11111111111 | __________1_      -0.374434  30.000
 -------------------------------------------------------------------
 State  37                      Configuration         Coeff.   <S^2>
 -------------------------------------------------------------------
                  111111111_11 | 1___________      -0.303163  30.000
                  111111111_11 | ____1_______       0.347304  30.000
                  111111111_11 | ______1_____       0.308153  30.000
                  111111111_11 | ___________1      -0.308161  30.000
                  1_1111111111 | __1_________       0.231394  30.000
                  1_1111111111 | ___1________      -0.230221  30.000
                  1_1111111111 | ____1_______       0.205298  30.000
                  1_1111111111 | _____1______      -0.267616  30.000
                  1_1111111111 | ________1___       0.226031  30.000
 -------------------------------------------------------------------
 State  38                      Configuration         Coeff.   <S^2>
 -------------------------------------------------------------------
                  1111111_1111 | 1___________       0.242782  30.000
                  1111111_1111 | __1_________      -0.306132  30.000
                  1111111_1111 | ___1________       0.295879  30.000
                  1111111_1111 | ____1_______      -0.284545  30.000
                  1111111_1111 | _____1______       0.347106  30.000
                  1111111_1111 | ______1_____      -0.251555  30.000
                  1111111_1111 | ________1___      -0.299057  30.000
                  1111111_1111 | ___________1       0.203459  30.000
                  1_1111111111 | __1_________       0.216980  30.000
                  1_1111111111 | ___1________      -0.221693  30.000
                  1_1111111111 | _____1______      -0.250774  30.000
                  1_1111111111 | ________1___       0.218120  30.000
 -------------------------------------------------------------------
 State  39                      Configuration         Coeff.   <S^2>
 -------------------------------------------------------------------
                  11111111111_ | _1__________       0.212966  30.000
                  11111111111_ | _________1__      -0.202701  30.000
                  11111111111_ | __________1_       0.260090  30.000
                  11_111111111 | _1__________       0.326437  30.000
                  11_111111111 | _______1____       0.321263  30.000
                  11_111111111 | _________1__      -0.356110  30.000
                  11_111111111 | __________1_       0.367172  30.000
 -------------------------------------------------------------------
 State  40                      Configuration         Coeff.   <S^2>
 -------------------------------------------------------------------
                  11111111_111 | __1_________      -0.208705  30.000
                  11111111_111 | ___1________      -0.393856  30.000
                  11111111_111 | _____1______       0.239637  30.000
                  11111_111111 | __1_________       0.358012  30.000
                  11111_111111 | ___1________       0.201096  30.000
                  11111_111111 | ________1___      -0.214582  30.000
                  111_11111111 | __1_________      -0.209383  30.000
                  111_11111111 | ________1___       0.351577  30.000
                  11_111111111 | ___1________       0.240360  30.000
                  11_111111111 | _____1______      -0.372517  30.000
 -------------------------------------------------------------------
 State  41                      Configuration         Coeff.   <S^2>
 -------------------------------------------------------------------
                  1111111111_1 | _1__________       0.256701  30.000
                  1111111111_1 | _________1__       0.414047  30.000
                  111111111_11 | _______1____       0.226133  30.000
                  111111111_11 | __________1_      -0.355546  30.000
                  1111111_1111 | _1__________       0.384594  30.000
                  1111111_1111 | _________1__       0.250663  30.000
                  1_1111111111 | _______1____       0.382316  30.000
                  1_1111111111 | __________1_      -0.220639  30.000
 -------------------------------------------------------------------
 State  42                      Configuration         Coeff.   <S^2>
 -------------------------------------------------------------------
                  11111111_111 | __1_________      -0.315947  30.000
                  11111111_111 | _____1______      -0.313994  30.000
                  11111_111111 | ___1________       0.339865  30.000
                  11111_111111 | ________1___       0.304661  30.000
                  111_11111111 | __1_________       0.281123  30.000
                  111_11111111 | _____1______       0.311410  30.000
                  11_111111111 | ___1________      -0.329885  30.000
                  11_111111111 | ________1___      -0.328064  30.000
 -------------------------------------------------------------------
 State  43                      Configuration         Coeff.   <S^2>
 -------------------------------------------------------------------
                  11111111111_ | ____1_______      -0.240663  30.000
                  1111111111_1 | _1__________       0.298482  30.000
                  1111111111_1 | _______1____      -0.391596  30.000
                  111111111_11 | _1__________      -0.369196  30.000
                  111111111_11 | _______1____       0.284499  30.000
[...]
   697     3232.27557860    31112.07060802        6.00000000      cm-1
   698     3234.78038398    31114.57541340       -0.00000000      cm-1
   699     3235.17508627    31114.97011569       12.00000000      cm-1
   700     3238.22251172    31118.01754114       20.00000000      cm-1
   701     3239.01958409    31118.81461351        6.00000000      cm-1
   702     3239.47031516    31119.26534458       20.00000000      cm-1
   703     3239.88429685    31119.67932627        6.00000000      cm-1
   704     3242.05553848    31121.85056789        6.00000000      cm-1
   705     3243.68289887    31123.47792829       12.00000000      cm-1
   706     3245.93141005    31125.72643947        2.00000000      cm-1
   707     3248.29177042    31128.08679984        6.00000000      cm-1
   708     3249.29492040    31129.08994982        2.00000000      cm-1
   709     3250.10677181    31129.90180123       -0.00000000      cm-1
   710     3250.27757949    31130.07260891       12.00000000      cm-1
   711     3250.46903341    31130.26406283       20.00000000      cm-1
   712     3251.74517227    31131.54020168        6.00000000      cm-1
   713     3253.39389023    31133.18891965       12.00000000      cm-1
   714     3255.27310031    31135.06812973        6.00000000      cm-1
   715     3255.35416846    31135.14919788       12.00000000      cm-1
   716     3258.63412209    31138.42915150       20.00000000      cm-1
   717     3262.98308349    31142.77811291        6.00000000      cm-1
   718     3264.66688809    31144.46191751       12.00000000      cm-1
   719     3264.67485043    31144.46987985        2.00000000      cm-1
   720     3266.53904165    31146.33407107        6.00000000      cm-1
   721     3267.43538621    31147.23041563        6.00000000      cm-1
   722     3267.79596737    31147.59099679        2.00000000      cm-1
   723     3270.74581811    31150.54084752        6.00000000      cm-1
   724     3270.93156197    31150.72659139       12.00000000      cm-1
   725     3272.77026531    31152.56529472       12.00000000      cm-1
   726     3276.63068299    31156.42571241       12.00000000      cm-1
   727     3277.96566305    31157.76069247        6.00000000      cm-1
   728     3279.44575570    31159.24078512       12.00000000      cm-1
   729     3286.35464168    31166.14967109       12.00000000      cm-1
   730     3286.74698819    31166.54201761       12.00000000      cm-1
   731     3287.78713366    31167.58216308        6.00000000      cm-1
   732     3287.83044090    31167.62547032        2.00000000      cm-1
   733     3290.53306921    31170.32809863        6.00000000      cm-1
   734     3291.40120389    31171.19623331       12.00000000      cm-1
   735     3291.46556046    31171.26058987       20.00000000      cm-1
   736     3291.76235596    31171.55738538       -0.00000000      cm-1
   737     3292.21908352    31172.01411293       12.00000000      cm-1
   738     3300.58195168    31180.37698110       12.00000000      cm-1
   739     3304.26002218    31184.05505160       20.00000000      cm-1
   740     3310.99380144    31190.78883086       20.00000000      cm-1
   741     3312.70450305    31192.49953247       20.00000000      cm-1
   742     3313.49459252    31193.28962194        6.00000000      cm-1
   743     3314.29631158    31194.09134100       12.00000000      cm-1
   744     3318.05444969    31197.84947911       20.00000000      cm-1
   745     3318.80189686    31198.59692628       12.00000000      cm-1
   746     3323.34169516    31203.13672458        6.00000000      cm-1
   747     3323.51254522    31203.30757464       20.00000000      cm-1
   748     3325.63839325    31205.43342267       12.00000000      cm-1
   749     3326.77176041    31206.56678983       12.00000000      cm-1
   750     3328.08894463    31207.88397405       20.00000000      cm-1
   751     3329.24987175    31209.04490117        6.00000000      cm-1
   752     3335.04477353    31214.83980295       20.00000000      cm-1
   753     3338.81900035    31218.61402977       20.00000000      cm-1
   754     3344.47087808    31224.26590750       20.00000000      cm-1
   755     3366.50618050    31246.30120992       20.00000000      cm-1
   756     3378.10040287    31257.89543229       20.00000000      cm-1
   757     3384.08628872    31263.88131814       20.00000000      cm-1
   758     8794.53973763    36674.33476705        0.00000000      cm-1
   759     8858.15231695    36737.94734637        2.00000000      cm-1
   760     8869.86981692    36749.66484634       -0.00000000      cm-1
   761     8933.50342298    36813.29845240        2.00000000      cm-1
   762     8983.71820661    36863.51323603        6.00000000      cm-1
   763     9059.11164166    36938.90667107        6.00000000      cm-1
   764     9084.89213939    36964.68716881       -0.00000000      cm-1
   765     9097.44783767    36977.24286708        2.00000000      cm-1
   766     9114.75991396    36994.55494338       -0.00000000      cm-1
   767     9122.48734890    37002.28237832        6.00000000      cm-1
   768     9126.13411197    37005.92914139        2.00000000      cm-1
   769     9148.81621943    37028.61124884        6.00000000      cm-1
   770     9159.86886463    37039.66389405       12.00000000      cm-1
   771     9168.12269792    37047.91772734       12.00000000      cm-1
   772     9182.67562381    37062.47065323       12.00000000      cm-1
   773     9197.94227672    37077.73730614       -0.00000000      cm-1
   774     9209.38444328    37089.17947270       20.00000000      cm-1
   775     9210.07494657    37089.86997599        2.00000000      cm-1
   776     9227.52119524    37107.31622466       20.00000000      cm-1
   777     9234.27284436    37114.06787378        6.00000000      cm-1
   778     9243.58028008    37123.37530950       12.00000000      cm-1
   779     9270.40288936    37150.19791878       12.00000000      cm-1
   780     9288.59223781    37168.38726723       -0.00000000      cm-1
   781     9300.61461093    37180.40964035        2.00000000      cm-1
   782     9318.26986886    37198.06489828       20.00000000      cm-1
   783     9324.59040263    37204.38543205        6.00000000      cm-1
   784     9360.38368081    37240.17871023       12.00000000      cm-1
   785     9407.14567375    37286.94070317       20.00000000      cm-1
   786     9407.79535680    37287.59038622       20.00000000      cm-1
   787     9482.68991202    37362.48494144       20.00000000      cm-1
   788    14841.22683461    42721.02186403        2.00000000      cm-1
   789    14862.66352162    42742.45855104        6.00000000      cm-1
   790    14893.50195300    42773.29698242       12.00000000      cm-1
   791    14952.30916404    42832.10419345        2.00000000      cm-1
   792    14990.45053442    42870.24556384        2.00000000      cm-1
   793    14993.17801559    42872.97304501        2.00000000      cm-1
   794    14999.81942975    42879.61445917        6.00000000      cm-1
   795    15008.93476789    42888.72979731        0.00000000      cm-1
   796    15016.18786985    42895.98289927       -0.00000000      cm-1
   797    15020.74628930    42900.54131872        0.00000000      cm-1
   798    15022.91535019    42902.71037961        2.00000000      cm-1
   799    15030.04999003    42909.84501944        2.00000000      cm-1
   800    15032.92529312    42912.72032254        2.00000000      cm-1
   801    15041.78327925    42921.57830867        2.00000000      cm-1
   802    15051.85794003    42931.65296945        6.00000000      cm-1
   803    15055.29364681    42935.08867623        2.00000000      cm-1
   804    15058.30479769    42938.09982711        6.00000000      cm-1
   805    15063.23466655    42943.02969596       12.00000000      cm-1
   806    15067.55210273    42947.34713214        6.00000000      cm-1
   807    15074.74232589    42954.53735531        6.00000000      cm-1
   808    15079.64565732    42959.44068674        0.00000000      cm-1
   809    15083.67186291    42963.46689233        2.00000000      cm-1
   810    15084.72281066    42964.51784007       12.00000000      cm-1
   811    15089.29805785    42969.09308727        2.00000000      cm-1
   812    15091.55468384    42971.34971325       12.00000000      cm-1
   813    15099.44700479    42979.24203421        6.00000000      cm-1
   814    15115.29358849    42995.08861790        2.00000000      cm-1
   815    15116.32182222    42996.11685164        6.00000000      cm-1
   816    15126.24463109    43006.03966051        2.00000000      cm-1
   817    15144.49017749    43024.28520691       20.00000000      cm-1
   818    15149.88365857    43029.67868799        6.00000000      cm-1
   819    15155.80687625    43035.60190567       12.00000000      cm-1
   820    15162.73266194    43042.52769136        6.00000000      cm-1
   821    15165.11124122    43044.90627064       12.00000000      cm-1
   822    15187.60832459    43067.40335401        2.00000000      cm-1
   823    15197.20827135    43077.00330077        6.00000000      cm-1
   824    15202.00735284    43081.80238226        2.00000000      cm-1
   825    15205.07033485    43084.86536427        0.00000000      cm-1
   826    15208.31433769    43088.10936711       20.00000000      cm-1
   827    15219.85758878    43099.65261820       12.00000000      cm-1
   828    15222.88108688    43102.67611630        6.00000000      cm-1
   829    15223.44205520    43103.23708462        2.00000000      cm-1
   830    15227.81177344    43107.60680285       -0.00000000      cm-1
   831    15238.61153365    43118.40656306       12.00000000      cm-1
   832    15241.93221379    43121.72724321        2.00000000      cm-1
   833    15246.02786929    43125.82289871        6.00000000      cm-1
   834    15261.55953684    43141.35456626       12.00000000      cm-1
   835    15266.92394158    43146.71897100        6.00000000      cm-1
   836    15272.39054129    43152.18557071       30.00000000      cm-1
   837    15279.15784785    43158.95287727        6.00000000      cm-1
   838    15283.82573883    43163.62076825       12.00000000      cm-1
   839    15287.61262091    43167.40765032       20.00000000      cm-1
   840    15289.71037387    43169.50540329       -0.00000000      cm-1
   841    15291.63764849    43171.43267791        6.00000000      cm-1
   842    15303.25777617    43183.05280559        2.00000000      cm-1
   843    15303.76195733    43183.55698675       12.00000000      cm-1
   844    15325.80989677    43205.60492619        6.00000000      cm-1
   845    15334.84354611    43214.63857553       12.00000000      cm-1
   846    15345.35131042    43225.14633983       12.00000000      cm-1
   847    15348.97656273    43228.77159215       20.00000000      cm-1
   848    15354.97415429    43234.76918371       20.00000000      cm-1
   849    15359.13837630    43238.93340572       12.00000000      cm-1
   850    15391.73565479    43271.53068421        2.00000000      cm-1
   851    15394.59102076    43274.38605017       12.00000000      cm-1
   852    15396.81632248    43276.61135189       20.00000000      cm-1
   853    15398.55600096    43278.35103038        6.00000000      cm-1
   854    15398.75168075    43278.54671016        0.00000000      cm-1
   855    15409.52147345    43289.31650286        2.00000000      cm-1
   856    15420.14482894    43299.93985836        6.00000000      cm-1
   857    15426.22967848    43306.02470789       20.00000000      cm-1
   858    15433.12599054    43312.92101996        6.00000000      cm-1
   859    15444.44445325    43324.23948267       20.00000000      cm-1
   860    15459.62610655    43339.42113597        2.00000000      cm-1
   861    15460.16408916    43339.95911858       12.00000000      cm-1
   862    15462.70567221    43342.50070163        2.00000000      cm-1
   863    15469.06626611    43348.86129553       12.00000000      cm-1
   864    15483.88266818    43363.67769760        0.00000000      cm-1
   865    15485.94556947    43365.74059889        6.00000000      cm-1
   866    15487.83716003    43367.63218945        6.00000000      cm-1
   867    15493.94034826    43373.73537767        2.00000000      cm-1
   868    15495.82511609    43375.62014550        2.00000000      cm-1
   869    15496.68043223    43376.47546165       12.00000000      cm-1
   870    15506.86260198    43386.65763140       20.00000000      cm-1
   871    15512.02903565    43391.82406506       12.00000000      cm-1
   872    15519.65461616    43399.44964558        6.00000000      cm-1
   873    15520.56503948    43400.36006890       20.00000000      cm-1
   874    15520.80232433    43400.59735375       12.00000000      cm-1
   875    15525.53091985    43405.32594927        6.00000000      cm-1
   876    15530.36429466    43410.15932408       12.00000000      cm-1
   877    15533.88778469    43413.68281411        2.00000000      cm-1
   878    15538.17378534    43417.96881476        2.00000000      cm-1
   879    15546.76890125    43426.56393067       30.00000000      cm-1
   880    15554.54738745    43434.34241687        6.00000000      cm-1
   881    15554.98499771    43434.78002713       12.00000000      cm-1
   882    15556.64876478    43436.44379419        6.00000000      cm-1
   883    15568.41795598    43448.21298540       20.00000000      cm-1
   884    15568.76748025    43448.56250967       12.00000000      cm-1
   885    15568.86062991    43448.65565932        2.00000000      cm-1
   886    15581.87987434    43461.67490376        6.00000000      cm-1
   887    15582.28179420    43462.07682362       12.00000000      cm-1
   888    15586.15153057    43465.94655999       20.00000000      cm-1
   889    15586.65300919    43466.44803860       12.00000000      cm-1
   890    15590.61982682    43470.41485624       30.00000000      cm-1
   891    15591.43402670    43471.22905611       20.00000000      cm-1
   892    15597.07399972    43476.86902914       12.00000000      cm-1
   893    15600.67491757    43480.46994699       20.00000000      cm-1
   894    15615.13913925    43494.93416867       20.00000000      cm-1
   895    15625.99505582    43505.79008523       20.00000000      cm-1
   896    15638.62120394    43518.41623336       20.00000000      cm-1
   897    15640.29673992    43520.09176934       30.00000000      cm-1
   898    15649.96428153    43529.75931095       12.00000000      cm-1
   899    15656.83668250    43536.63171192       20.00000000      cm-1
   900    15672.04401974    43551.83904916       30.00000000      cm-1
   901    15676.81163928    43556.60666870       30.00000000      cm-1
   902    15687.78098590    43567.57601532       30.00000000      cm-1
   903    15705.43005696    43585.22508638       30.00000000      cm-1
   904    15714.28875297    43594.08378239       30.00000000      cm-1
   905    27326.27148637    55206.06651579        6.00000000      cm-1
   906    27354.95616606    55234.75119548        2.00000000      cm-1
   907    27378.31642316    55258.11145258        6.00000000      cm-1
   908    27413.49001761    55293.28504702       12.00000000      cm-1
   909    27445.36356564    55325.15859506        0.00000000      cm-1
   910    27457.14577649    55336.94080591        2.00000000      cm-1
   911    27480.68564876    55360.48067817        6.00000000      cm-1
   912    27515.93397652    55395.72900594       12.00000000      cm-1
   913    27562.81719640    55442.61222582       20.00000000      cm-1
   914    27606.23450065    55486.02953007        2.00000000      cm-1
   915    27629.97419968    55509.76922910        6.00000000      cm-1
   916    27665.47658963    55545.27161905       12.00000000      cm-1
   917    27712.61534407    55592.41037349       20.00000000      cm-1
   918    27771.22576711    55651.02079653       30.00000000      cm-1
   919    27821.61193427    55701.40696369        6.00000000      cm-1
   920    27857.47647933    55737.27150875       12.00000000      cm-1
   921    27905.05823543    55784.85326485       20.00000000      cm-1
   922    27964.16044085    55843.95547027       30.00000000      cm-1
   923    28034.54538173    55914.34041115       42.00000000      cm-1
 Analysis of SCF Wavefunction

 --------------------------------------------------------------

                    Orbital Energies (a.u.)
 --------------------------------------------------------------

 Alpha MOs
 -- Occupied --
 -0.914  -0.914  -0.516  -0.516  -0.516  -0.518  -0.516  -0.516
 -0.515  -0.516  -0.515  -0.516  -0.516  -0.516
 -- Virtual --
  0.992   0.938   0.958   1.007   0.833   1.229   1.017   0.941
  1.053   1.345   1.007   0.950   1.033   1.054

 Beta MOs
 -- Occupied --
 -0.914  -0.914
 -- Virtual --
  0.147   0.147   0.148   0.148   0.147   0.147   0.149   0.147
  0.147   0.147   0.147   0.147   1.161   1.103   1.122   1.161
  1.011   1.294   1.183   1.108   1.213   1.369   1.143   1.117
  1.193   1.216
 --------------------------------------------------------------

          Ground-State Mulliken Net Atomic Charges

     Atom                 Charge (a.u.)
  ----------------------------------------
      1 H                     0.000103
      2 H                     0.000006
      3 H                    -0.000005
      4 H                     0.000004
      5 H                    -0.000007
      6 H                     0.000004
      7 H                     0.000009
      8 H                    -0.000007
      9 H                     0.000065
     10 H                    -0.000037
     11 H                    -0.000064
     12 H                    -0.000069
     13 He                    0.000000
     14 He                    0.000000
  ----------------------------------------
  Sum of atomic charges =    -0.000000

 -----------------------------------------------------------------
                    Cartesian Multipole Moments
 -----------------------------------------------------------------
    Charge (ESU x 10^10)
                 0.0000
    Dipole Moment (Debye)
         X      -0.0005      Y      -0.0005      Z       0.0002
       Tot       0.0007
    Quadrupole Moments (Debye-Ang)
        XX     -19.6016     XY       0.0139     YY     -19.5218
        XZ      -0.0000     YZ      -0.0025     ZZ     -19.5140
    Octopole Moments (Debye-Ang^2)
       XXX     -19.5103    XXY     -37.4821    XYY      -4.8354
       YYY    -115.0327    XXZ     -22.9240    XYZ      -0.0087
       YYZ     -23.7914    XZZ      -4.1145    YZZ     -37.3901
       ZZZ     -70.7109
    Hexadecapole Moments (Debye-Ang^3)
      XXXX   -1642.4067   XXXY     -15.6598   XXYY    -588.7129
      XYYY     -13.0448   YYYY   -1871.9827   XXXZ       3.4164
      XXYZ    -215.1927   XYYZ       0.0416   YYYZ    -655.8063
      XXZZ    -491.0341   XYZZ      -4.1639   YYZZ    -538.7492
      XZZZ       4.4598   YZZZ    -650.0984   ZZZZ   -1318.2298
 -----------------------------------------------------------------
 JobOver = TRUE
Archival summary:
1\1\sinatra\SP\ROProcedureUnspecified\6-31G*\e212()\nmayhall\MonMar2016:11:062017MonMar2016:11:062017\0\\#,ROProcedureUnspecified,6-31G*,\\0,13\H\H,1,1.8108\H,2,1.8111,1,60.0291\H,3,1.81133,2,60.0389,1,70.5227,0\H,1,2.837,2,152.386,3,178.05,0\H,5,1.8112,1,73.0863,2,-68.5028,0\H,6,1.81121,5,60.0005,1,-92.9521,0\H,7,1.81039,6,60.0315,5,-70.571,0\H,3,3.29152,2,142.813,1,-25.8526,0\H,9,1.81065,3,135.718,2,-173.386,0\H,9,1.81086,3,150.104,2,-62.98,0\H,10,1.81131,9,60.0237,3,76.8609,0\He,10,14.2308,9,122.642,3,-144.295,0\He,10,14.4657,9,122.793,3,-32.4368,0\\HF=-11.471854\\@

 Total job time:  0.52s(wall), 0.52s(cpu) 
 Mon Mar 20 16:11:06 2017

        *************************************************************
        *                                                           *
        *  Thank you very much for using Q-Chem.  Have a nice day.  *
        *                                                           *
        *************************************************************


*** MISSION COMPLETED -- STARFLEET OUT ***

