Jobname.Temp
SP        RO                            6-31G(d)            
Number of atoms                            I               14
Charge                                     I                0
Multiplicity                               I               13
Number of electrons                        I               16
Number of alpha electrons                  I               14
Number of beta electrons                   I                2
Atomic numbers                             I   N=          14
           1           1           1           1           1           1
           1           1           1           1           1           1
           2           2
Current cartesian coordinates              R   N=          42
 -1.39563833E+00 -1.02168043E+00  1.62062912E-01 -4.37169242E+00 -1.92275854E+00
 -1.26643776E+00 -3.96052581E+00  1.23869658E+00 -2.16562614E-02 -4.17712622E+00
 -1.42555270E+00  2.11639877E+00  2.79063416E+00  7.88399409E+00  1.85722284E-01
  3.18418852E-01  8.99551209E+00  2.27798925E+00  3.45574216E-01  5.73494084E+00
  1.24094535E+00 -4.09806007E-01  8.23028640E+00 -9.77800989E-01  6.59230959E+00
 -1.65451191E+00 -1.14970937E-01  4.33973715E+00  9.17991157E-01 -3.60937690E-03
  3.66531279E+00 -2.01588424E+00  1.62501329E+00  3.62048849E+00 -1.90796198E+00
 -1.79565556E+00  1.88972612E+01  1.88972612E+01  1.88972612E+01 -1.88972612E+01
  1.88972612E+01  1.88972612E+01
Nuclear charges                            R   N=          14
  1.00000000E+00  1.00000000E+00  1.00000000E+00  1.00000000E+00  1.00000000E+00
  1.00000000E+00  1.00000000E+00  1.00000000E+00  1.00000000E+00  1.00000000E+00
  1.00000000E+00  1.00000000E+00  2.00000000E+00  2.00000000E+00
Number of basis functions                  I               28
Number of contracted shells                I               28
Number of primitive shells                 I               56
Highest angular momentum                   I                0
Largest degree of contraction              I                3
Shell types                                I   N=          28
           0           0           0           0           0           0
           0           0           0           0           0           0
           0           0           0           0           0           0
           0           0           0           0           0           0
           0           0           0           0
Number of primitives per shell             I   N=          28
           3           1           3           1           3           1
           3           1           3           1           3           1
           3           1           3           1           3           1
           3           1           3           1           3           1
           3           1           3           1
Shell to atom map                          I   N=          28
           1           1           2           2           3           3
           4           4           5           5           6           6
           7           7           8           8           9           9
          10          10          11          11          12          12
          13          13          14          14
Primitive exponents                        R   N=          56
  1.87311370E+01  2.82539370E+00  6.40121700E-01  1.61277800E-01  1.87311370E+01
  2.82539370E+00  6.40121700E-01  1.61277800E-01  1.87311370E+01  2.82539370E+00
  6.40121700E-01  1.61277800E-01  1.87311370E+01  2.82539370E+00  6.40121700E-01
  1.61277800E-01  1.87311370E+01  2.82539370E+00  6.40121700E-01  1.61277800E-01
  1.87311370E+01  2.82539370E+00  6.40121700E-01  1.61277800E-01  1.87311370E+01
  2.82539370E+00  6.40121700E-01  1.61277800E-01  1.87311370E+01  2.82539370E+00
  6.40121700E-01  1.61277800E-01  1.87311370E+01  2.82539370E+00  6.40121700E-01
  1.61277800E-01  1.87311370E+01  2.82539370E+00  6.40121700E-01  1.61277800E-01
  1.87311370E+01  2.82539370E+00  6.40121700E-01  1.61277800E-01  1.87311370E+01
  2.82539370E+00  6.40121700E-01  1.61277800E-01  3.84216340E+01  5.77803000E+00
  1.24177400E+00  2.97964000E-01  3.84216340E+01  5.77803000E+00  1.24177400E+00
  2.97964000E-01
Contraction coefficients                   R   N=          56
  3.34945995E-02  2.34726947E-01  8.13757318E-01  1.00000000E+00  3.34945995E-02
  2.34726947E-01  8.13757318E-01  1.00000000E+00  3.34945995E-02  2.34726947E-01
  8.13757318E-01  1.00000000E+00  3.34945995E-02  2.34726947E-01  8.13757318E-01
  1.00000000E+00  3.34945995E-02  2.34726947E-01  8.13757318E-01  1.00000000E+00
  3.34945995E-02  2.34726947E-01  8.13757318E-01  1.00000000E+00  3.34945995E-02
  2.34726947E-01  8.13757318E-01  1.00000000E+00  3.34945995E-02  2.34726947E-01
  8.13757318E-01  1.00000000E+00  3.34945995E-02  2.34726947E-01  8.13757318E-01
  1.00000000E+00  3.34945995E-02  2.34726947E-01  8.13757318E-01  1.00000000E+00
  3.34945995E-02  2.34726947E-01  8.13757318E-01  1.00000000E+00  3.34945995E-02
  2.34726947E-01  8.13757318E-01  1.00000000E+00  4.01397393E-02  2.61246097E-01
  7.93184625E-01  1.00000000E+00  4.01397393E-02  2.61246097E-01  7.93184625E-01
  1.00000000E+00
Coordinates of each shell                  R   N=          84
 -1.39563833E+00 -1.02168043E+00  1.62062912E-01 -1.39563833E+00 -1.02168043E+00
  1.62062912E-01 -4.37169242E+00 -1.92275854E+00 -1.26643776E+00 -4.37169242E+00
 -1.92275854E+00 -1.26643776E+00 -3.96052581E+00  1.23869658E+00 -2.16562614E-02
 -3.96052581E+00  1.23869658E+00 -2.16562614E-02 -4.17712622E+00 -1.42555270E+00
  2.11639877E+00 -4.17712622E+00 -1.42555270E+00  2.11639877E+00  2.79063416E+00
  7.88399409E+00  1.85722284E-01  2.79063416E+00  7.88399409E+00  1.85722284E-01
  3.18418852E-01  8.99551209E+00  2.27798925E+00  3.18418852E-01  8.99551209E+00
  2.27798925E+00  3.45574216E-01  5.73494084E+00  1.24094535E+00  3.45574216E-01
  5.73494084E+00  1.24094535E+00 -4.09806007E-01  8.23028640E+00 -9.77800989E-01
 -4.09806007E-01  8.23028640E+00 -9.77800989E-01  6.59230959E+00 -1.65451191E+00
 -1.14970937E-01  6.59230959E+00 -1.65451191E+00 -1.14970937E-01  4.33973715E+00
  9.17991157E-01 -3.60937690E-03  4.33973715E+00  9.17991157E-01 -3.60937690E-03
  3.66531279E+00 -2.01588424E+00  1.62501329E+00  3.66531279E+00 -2.01588424E+00
  1.62501329E+00  3.62048849E+00 -1.90796198E+00 -1.79565556E+00  3.62048849E+00
 -1.90796198E+00 -1.79565556E+00  1.88972612E+01  1.88972612E+01  1.88972612E+01
  1.88972612E+01  1.88972612E+01  1.88972612E+01 -1.88972612E+01  1.88972612E+01
  1.88972612E+01 -1.88972612E+01  1.88972612E+01  1.88972612E+01
SCF Energy                                 R     -1.147195430723714E+01
Number of independent functions            I               28
Alpha MO coefficients                      R   N=         784
  6.77197470E-22 -8.73365518E-22  1.33520895E-21 -1.74536389E-21 -1.69199023E-21
  3.04495279E-21  1.26512238E-21 -1.86942192E-21 -2.79118328E-21  3.54232977E-21
  5.88168892E-23 -1.10672515E-21  3.12126850E-21 -4.53618400E-21 -1.97211678E-21
  3.07913069E-21  2.35899045E-21 -2.88505940E-21 -1.52861522E-21  3.25027799E-21
  1.45598904E-21 -2.50071341E-21 -3.87801108E-22  6.84641634E-22 -5.92081261E-01
 -5.13586011E-01  4.20325815E-21 -4.33952731E-21  9.08316354E-17 -7.71469910E-17
  1.21049926E-16 -1.15447340E-16  6.67898483E-19  1.07824353E-16  1.72571616E-16
 -5.51562095E-17 -3.66497639E-17  1.20880448E-17 -5.11443536E-17  1.68353980E-17
 -1.62588391E-16  1.26863658E-16 -5.42640323E-17 -1.74172540E-17  3.42070416E-17
  1.38271926E-16 -2.76062545E-17  4.54828947E-17  1.68192541E-16 -8.99984928E-17
  6.36370268E-17 -8.67473403E-17  4.47858570E-21 -4.62308433E-21 -5.92081261E-01
 -5.13586011E-01 -1.64505384E-02 -9.03398440E-02  4.43549219E-01  7.24343612E-01
 -1.61216617E-02 -8.99504012E-02 -1.60383175E-02 -8.97615978E-02 -4.67508485E-04
  2.38453851E-04 -4.24106350E-04  1.94041906E-04  2.94363647E-03 -2.79283258E-04
  1.30663500E-04 -1.36725215E-04 -9.71362068E-04 -5.59305045E-04  1.41529276E-03
 -2.13182089E-04  2.51869182E-03  1.87409430E-03  4.83933692E-04  2.08384502E-03
  1.97513750E-19  1.71328339E-19  7.27975016E-17  6.31463632E-17  7.06358485E-04
 -1.55465647E-04 -5.42251776E-05 -5.92217918E-05 -7.67734165E-04  7.86068214E-04
  1.73929718E-04 -2.30735623E-04 -1.61221366E-02 -8.99604972E-02 -1.60696637E-02
 -9.00311278E-02 -1.61067535E-02 -8.98728129E-02  4.43535099E-01  7.24295427E-01
 -3.29701071E-04  1.09311644E-04  2.06687816E-03  2.97221492E-05 -8.20283552E-05
 -3.19765460E-05 -2.64511794E-04  9.02087734E-05  4.15757514E-17  3.60638407E-17
  6.48254153E-17  5.62311775E-17 -7.56169807E-03 -4.10845613E-03  8.22805895E-04
  4.55612164E-04  7.58766882E-04  4.74128564E-04  7.74249939E-04  4.69111074E-04
 -6.93222800E-04  2.00341085E-04  4.27448235E-04 -1.98252840E-04 -1.98455090E-03
  5.06353953E-05  2.81333491E-04 -8.36773267E-05 -4.43805757E-01 -7.24058455E-01
  1.63599607E-02  9.00596042E-02  1.67816930E-02  8.97520537E-02  1.66994501E-02
  8.98284340E-02  4.91429283E-18  4.26277981E-18  6.50875062E-18  5.64585225E-18
  7.96956446E-03  1.71247774E-02  4.80832129E-04 -3.06899158E-03 -8.62552488E-04
 -2.50934467E-03 -1.66308352E-03 -2.11737019E-03 -7.11947236E-04  2.24122068E-04
  3.20244639E-04 -1.03889270E-04 -1.32886442E-03 -2.41252968E-04  2.55402306E-04
 -5.81832452E-05  1.62944486E-02  8.97147214E-02  1.57898428E-02  9.00819717E-02
  1.53319947E-02  8.98887931E-02 -4.43876957E-01 -7.24814009E-01  4.65742363E-17
  4.03996508E-17 -2.14969021E-17 -1.86469474E-17 -1.63356886E-02 -9.01503398E-02
 -1.61176378E-02 -8.99827301E-02  4.43746271E-01  7.24274686E-01 -1.60598030E-02
 -8.99995956E-02  1.30247684E-03  3.23343319E-04  9.52521433E-04  5.74702221E-04
 -6.85279587E-03 -5.01344211E-03 -1.43956648E-03  1.30998829E-03 -9.27407471E-04
 -5.89017753E-04 -5.30302983E-05  2.68375020E-04  2.36290176E-03  1.90556867E-03
  1.80600898E-03  1.66486578E-03  6.87321439E-18  5.96199709E-18 -4.10888780E-17
 -3.56415145E-17  3.20798868E-03  3.98753057E-03 -8.16909196E-04 -3.71864125E-04
  6.08850869E-04 -1.01817853E-03 -6.62247201E-04 -4.81081333E-04  3.78914382E-03
 -5.27287898E-04 -1.73017152E-03 -2.08832146E-04  7.24518165E-03  4.29774037E-03
 -1.05925777E-03 -5.95202644E-04  1.61562345E-02  9.01805794E-02 -4.43645620E-01
 -7.24465977E-01  1.58554873E-02  9.00087225E-02  1.59257672E-02  8.99567098E-02
 -4.42461001E-17 -3.83801676E-17 -1.76337995E-18 -1.52959980E-18 -1.63913296E-02
 -9.02036567E-02 -1.60420488E-02 -8.97369930E-02 -1.60924838E-02 -8.99824771E-02
  4.43509652E-01  7.24311441E-01 -2.97464869E-04  1.02610115E-04 -2.85940391E-04
  9.08761268E-05  1.72108783E-03  2.41576753E-04  2.97563405E-04 -2.62368095E-04
 -9.35122549E-04 -5.65156826E-04  1.24643394E-03 -1.38586169E-04  3.75294405E-04
  2.52273237E-03  2.62361191E-03  1.33447333E-03 -4.68038548E-17 -4.05988276E-17
  6.71325900E-17  5.82324780E-17 -8.67568982E-04  2.58776956E-04  4.39278180E-04
 -1.94848604E-04 -1.78614842E-03 -8.78149264E-05  2.37766250E-04 -5.25860608E-05
  1.60933139E-02  8.97809798E-02 -4.43552063E-01 -7.24287398E-01  1.61946619E-02
  9.00012458E-02  1.60689043E-02  9.00532550E-02  4.35885691E-04 -2.00485079E-04
 -2.76765693E-03  2.89921091E-04  1.76676174E-04 -5.17134391E-05  2.91926221E-04
 -1.17358980E-04 -1.21074052E-17 -1.05022644E-17  3.32016731E-17  2.87999569E-17
 -8.72817667E-03 -2.01775844E-02  1.47806861E-03  2.73878503E-03  1.35274536E-03
  2.73783721E-03 -6.40640544E-04  3.52993580E-03  8.24227255E-04 -2.98472862E-04
 -2.41470692E-04  5.20983848E-05  5.74733537E-04  5.42085023E-04 -1.09486562E-04
 -5.19635136E-05 -1.63376014E-02 -8.95579460E-02 -1.57019700E-02 -9.01690988E-02
  4.44017278E-01  7.24943019E-01 -1.53087823E-02 -8.99304970E-02  5.38128999E-17
  4.66786477E-17 -1.95134526E-17 -1.69264542E-17 -6.63524389E-04  1.36060186E-04
  4.73765790E-04 -2.31717827E-04 -2.14367444E-03  1.12145779E-04  2.40005121E-04
 -6.15221751E-05 -4.43570972E-01 -7.24266987E-01  1.61080585E-02  8.97712929E-02
  1.60130546E-02  9.01639315E-02  1.61231678E-02  8.99585949E-02 -3.24851896E-04
 -1.59553043E-06  3.06983711E-03  1.36666705E-04 -5.28233340E-04  1.34008223E-04
 -3.80958911E-04  3.57404764E-05 -1.27459380E-17 -1.10561436E-17  6.45007134E-17
  5.59495230E-17 -3.84029680E-03  2.03913302E-04  1.85064233E-03  2.47733593E-04
 -7.11845023E-03 -4.61122398E-03  6.77047751E-04  8.90047723E-04 -1.59661467E-02
 -9.01997810E-02 -1.61735215E-02 -9.00647368E-02  4.43965592E-01  7.24171624E-01
 -1.60516074E-02 -8.98694477E-02  1.23719844E-03  3.57044858E-04 -6.90957835E-03
 -4.74497803E-03 -9.32083753E-05  9.37456100E-04  6.25676523E-04  6.24351729E-04
 -6.30713294E-18 -5.47096396E-18  2.44468470E-17  2.12058030E-17  4.45000894E-01
  7.25050495E-01 -1.60649194E-02 -9.01742574E-02 -1.59786795E-02 -8.99465095E-02
 -1.59947203E-02 -9.00625206E-02  2.69615639E-04  1.06344331E-04  4.83135938E-04
 -6.27294830E-05 -3.08000130E-03 -5.12882047E-04  4.91208886E-04 -1.33972803E-05
  4.92501915E-03  6.05155696E-03 -5.02860473E-03 -1.55533260E-03 -9.86616032E-03
 -1.71197959E-02 -9.22538335E-03 -1.41903810E-02  2.11743915E-17  1.83671938E-17
  1.89658290E-17  1.64514318E-17  6.84689902E-01 -7.20040436E-01 -2.90281152E-01
  3.67288423E-01  1.31013546E-01 -1.08642292E-01 -2.39105845E-01  3.08591964E-01
 -1.16655575E-02  3.90158399E-02 -1.92628782E-01  2.44929370E-01  5.26956559E-01
 -5.70160828E-01 -1.38176023E-01  1.82424187E-01 -5.10968884E-01  6.33885785E-01
  4.46246077E-01 -4.42292161E-01  2.73682553E-01 -2.29152269E-01  2.31243049E-01
 -1.84757848E-01  2.36838291E-16 -2.43965185E-16 -6.80341627E-18 -3.52307993E-17
 -4.53264712E-01  5.02557332E-01 -9.47310170E-02  1.16763248E-01  6.07546846E-01
 -6.88153024E-01 -3.04811952E-02  4.24833415E-02 -1.49770523E-02  4.51241292E-02
 -2.57892338E-01  3.24682258E-01  5.67536396E-01 -6.18430899E-01 -9.47982344E-02
  1.36175377E-01  2.57407569E-01 -3.13270630E-01  4.11232103E-01 -4.93510744E-01
 -4.11488542E-01  4.35646865E-01 -4.18619534E-01  4.46767839E-01  3.46397375E-16
 -3.02762496E-16 -2.35372241E-16  1.56258906E-16  3.44952420E-02 -2.13452053E-02
 -2.29770282E-01  2.81357302E-01  4.91955849E-01 -5.66046050E-01 -2.11143411E-01
  2.59390640E-01 -8.16696443E-01  9.54251417E-01  1.69358090E-01 -2.04367614E-01
  1.53764936E-01 -1.86281894E-01  4.55781963E-01 -5.41459841E-01  1.22700917E-01
 -1.50334441E-01 -5.09727392E-01  5.94069714E-01  1.58348851E-01 -1.91083255E-01
  1.90718499E-01 -2.29253953E-01  3.98628369E-16 -3.39797717E-16  5.43922136E-18
 -1.26360382E-17 -4.45511084E-03  8.70264095E-03 -5.96356004E-01  7.04577140E-01
 -6.54704299E-02  7.79271811E-02  6.71900191E-01 -7.93107403E-01 -5.43834506E-02
  6.26985613E-02  7.20449664E-02 -8.65517476E-02  2.55905697E-02 -3.29342031E-02
 -5.45827496E-02  6.30325407E-02  3.52161982E-02 -4.24221083E-02 -3.60338362E-02
  4.18809941E-02  6.24337901E-01 -7.38198571E-01 -6.29122327E-01  7.41837911E-01
  7.66169529E-16 -7.58123020E-16  2.35333524E-16 -2.38226244E-16 -1.14648557E-02
  1.21440374E-02  4.27354292E-02 -5.01927562E-02  1.79730278E-02 -1.88713087E-02
 -4.56893535E-02  5.47214937E-02 -2.40973481E-01  2.86305969E-01  9.01135398E-01
 -1.06958037E+00  1.79949665E-01 -2.12800562E-01 -8.37214599E-01  9.94462501E-01
  4.05815014E-02 -4.84627214E-02  4.83197422E-03 -4.71836846E-03 -8.11564923E-02
  9.54310794E-02  3.39251266E-02 -4.10536327E-02  3.74446382E-16 -3.52269578E-16
 -2.17119253E-16  3.94824583E-16  9.62944978E-03 -7.42889433E-03  6.32289397E-01
 -7.53295648E-01  4.62396737E-03 -3.98894155E-03 -6.35333463E-01  7.59304621E-01
 -3.83840563E-02  4.59312588E-02  8.48323463E-03 -1.00127711E-02  2.41892634E-02
 -2.85133839E-02  6.66270862E-03 -7.85217423E-03  2.30985247E-02 -2.73332825E-02
  1.41887382E-02 -1.63149620E-02  6.21791266E-01 -7.41275525E-01 -6.56157551E-01
  7.83511219E-01 -3.58092755E-16  3.72709615E-16  3.79137197E-16 -4.22531189E-16
 -2.83023112E-02  4.62672968E-02  3.47226913E-01 -3.97366425E-01 -5.17201977E-01
  6.43755425E-01  3.28469796E-01 -3.74808597E-01 -6.72947951E-01  8.19560734E-01
  1.76648769E-01 -2.02749387E-01  1.48256820E-01 -1.69035485E-01  4.12437123E-01
 -4.86543653E-01 -2.55856911E-01  2.92283467E-01  5.56300596E-01 -6.85107213E-01
 -2.44549680E-01  2.76409378E-01 -1.64977214E-01  1.81004517E-01 -3.18791909E-16
  3.55149176E-16  1.92457896E-16 -1.51427540E-16 -2.01851890E-01  2.02426021E-01
 -2.92538812E-01  3.13621917E-01  4.40767514E-01 -5.86227291E-01 -2.36480447E-01
  2.45499991E-01  2.18818684E-01 -1.93492795E-01  5.08891595E-01 -5.47420479E-01
 -5.84226492E-01  7.92733751E-01  3.46137814E-01 -3.49041357E-01 -5.98297296E-01
  6.53173805E-01  3.51663385E-01 -5.12868867E-01 -9.58490735E-02  3.29926563E-02
 -1.81436543E-01  1.38123145E-01  9.16229646E-16 -8.70094735E-16  3.35344859E-16
 -3.48198495E-16  5.04453736E-01 -7.14825080E-01 -4.05311618E-01  4.22337795E-01
 -2.34636239E-01  2.10494738E-01 -3.77047237E-01  3.87570039E-01  2.42361048E-02
  6.80733464E-03  2.12648672E-01 -2.24159022E-01 -2.13977670E-01  3.00478781E-01
  2.18083781E-01 -2.30808422E-01  8.44228103E-01 -9.03536096E-01  4.03472087E-01
 -3.56508865E-01 -1.79452928E-01  3.78364131E-01 -1.55024595E-01  3.44832254E-01
  9.93473731E-17 -7.96273991E-17 -1.62157460E-16  1.22462763E-16 -2.81645006E-01
  5.07605929E-02 -5.43670656E-01  3.98023475E-01 -4.96983667E-01  3.38479414E-01
 -5.40985050E-01  3.94562298E-01 -4.25217941E-01  3.04438925E-01 -4.38881820E-01
  3.21908621E-01 -2.23106499E-01  4.53749936E-02 -4.04457754E-01  2.78329258E-01
 -3.20914095E-01  2.39352734E-01 -1.90415236E-01  7.26182344E-02 -2.77773693E-01
  1.82259404E-01 -2.79287749E-01  1.84512719E-01 -2.60175170E-16  2.73968741E-16
  8.80749192E-16 -9.61419958E-16  2.51828661E-01 -1.17961147E-01  2.51980190E-01
 -1.22950009E-01  4.86744395E-01 -4.29368288E-01  2.69331318E-01 -1.45106935E-01
 -5.01278342E-01  2.99256811E-01 -4.34849755E-01  2.13600598E-01 -7.47573168E-01
  6.21593519E-01 -4.75264404E-01  2.65452771E-01  1.39715013E-01 -7.03700118E-02
  3.65085981E-01 -3.63279413E-01  9.84615173E-02 -1.23718011E-02  8.63975597E-02
  2.41666218E-03  3.17829615E-15 -3.28211449E-15  8.97201275E-16 -9.09731844E-16
  7.62128518E-01 -8.19132311E-01  1.85121682E-01 -1.95809547E-02  1.92810697E-01
 -2.99560987E-02  1.89425222E-01 -2.53901699E-02  6.31617139E-02 -7.08584015E-02
  1.00556631E-02 -1.18512993E-03 -6.89305794E-03  2.00035789E-02  6.25273001E-03
  3.76048038E-03 -2.51918435E-01 -1.93119875E-02 -5.27705610E-01  3.51278967E-01
 -6.63738182E-01  5.49950169E-01 -6.45258968E-01  5.21810214E-01  1.38520967E-15
 -1.47194123E-15 -1.21220179E-16  1.23121064E-16 -1.61634890E-15  1.36646936E-15
  1.79569766E-16 -9.92027028E-16 -2.74512119E-15  2.48157376E-15 -1.27416657E-15
  6.18440969E-16  1.03013960E-15 -3.78216678E-16  4.15679887E-16  3.51050466E-16
  2.21320357E-15 -2.04802726E-15  1.29737155E-15 -9.13412692E-16  3.99817594E-16
 -1.25816717E-16 -3.28556848E-16  6.21031792E-16  7.32835347E-16 -7.40379320E-16
  1.11591724E-15 -1.06252080E-15  1.14981805E+00 -1.18695880E+00 -4.81450648E-11
  4.97002483E-11  2.05007139E-16 -1.08508705E-16  2.17440483E-16 -1.05022061E-16
  1.70802169E-16 -2.19270199E-17  3.71778043E-16 -4.10253692E-16  8.34127376E-16
 -6.38241665E-16  8.86265148E-16 -4.65253539E-16  1.16036300E-15 -1.00168694E-15
  2.82560442E-16  8.57848641E-17  6.45578290E-16 -6.91828411E-16 -2.90893816E-16
  3.82250490E-16 -4.81692283E-16  5.75820502E-16  5.96576562E-16 -6.07327453E-16
  4.81453511E-11 -4.97004945E-11  1.14981805E+00 -1.18695880E+00
Beta MO coefficients                       R   N=         784
  6.77197470E-22 -8.73365518E-22  1.33520895E-21 -1.74536389E-21 -1.69199023E-21
  3.04495279E-21  1.26512238E-21 -1.86942192E-21 -2.79118328E-21  3.54232977E-21
  5.88168892E-23 -1.10672515E-21  3.12126850E-21 -4.53618400E-21 -1.97211678E-21
  3.07913069E-21  2.35899045E-21 -2.88505940E-21 -1.52861522E-21  3.25027799E-21
  1.45598904E-21 -2.50071341E-21 -3.87801108E-22  6.84641634E-22 -5.92081261E-01
 -5.13586011E-01  4.20325815E-21 -4.33952731E-21  9.08316354E-17 -7.71469910E-17
  1.21049926E-16 -1.15447340E-16  6.67898483E-19  1.07824353E-16  1.72571616E-16
 -5.51562095E-17 -3.66497639E-17  1.20880448E-17 -5.11443536E-17  1.68353980E-17
 -1.62588391E-16  1.26863658E-16 -5.42640323E-17 -1.74172540E-17  3.42070416E-17
  1.38271926E-16 -2.76062545E-17  4.54828947E-17  1.68192541E-16 -8.99984928E-17
  6.36370268E-17 -8.67473403E-17  4.47858570E-21 -4.62308433E-21 -5.92081261E-01
 -5.13586011E-01 -1.64505384E-02 -9.03398440E-02  4.43549219E-01  7.24343612E-01
 -1.61216617E-02 -8.99504012E-02 -1.60383175E-02 -8.97615978E-02 -4.67508485E-04
  2.38453851E-04 -4.24106350E-04  1.94041906E-04  2.94363647E-03 -2.79283258E-04
  1.30663500E-04 -1.36725215E-04 -9.71362068E-04 -5.59305045E-04  1.41529276E-03
 -2.13182089E-04  2.51869182E-03  1.87409430E-03  4.83933692E-04  2.08384502E-03
  1.97513750E-19  1.71328339E-19  7.27975016E-17  6.31463632E-17  7.06358485E-04
 -1.55465647E-04 -5.42251776E-05 -5.92217918E-05 -7.67734165E-04  7.86068214E-04
  1.73929718E-04 -2.30735623E-04 -1.61221366E-02 -8.99604972E-02 -1.60696637E-02
 -9.00311278E-02 -1.61067535E-02 -8.98728129E-02  4.43535099E-01  7.24295427E-01
 -3.29701071E-04  1.09311644E-04  2.06687816E-03  2.97221492E-05 -8.20283552E-05
 -3.19765460E-05 -2.64511794E-04  9.02087734E-05  4.15757514E-17  3.60638407E-17
  6.48254153E-17  5.62311775E-17 -7.56169807E-03 -4.10845613E-03  8.22805895E-04
  4.55612164E-04  7.58766882E-04  4.74128564E-04  7.74249939E-04  4.69111074E-04
 -6.93222800E-04  2.00341085E-04  4.27448235E-04 -1.98252840E-04 -1.98455090E-03
  5.06353953E-05  2.81333491E-04 -8.36773267E-05 -4.43805757E-01 -7.24058455E-01
  1.63599607E-02  9.00596042E-02  1.67816930E-02  8.97520537E-02  1.66994501E-02
  8.98284340E-02  4.91429283E-18  4.26277981E-18  6.50875062E-18  5.64585225E-18
  7.96956446E-03  1.71247774E-02  4.80832129E-04 -3.06899158E-03 -8.62552488E-04
 -2.50934467E-03 -1.66308352E-03 -2.11737019E-03 -7.11947236E-04  2.24122068E-04
  3.20244639E-04 -1.03889270E-04 -1.32886442E-03 -2.41252968E-04  2.55402306E-04
 -5.81832452E-05  1.62944486E-02  8.97147214E-02  1.57898428E-02  9.00819717E-02
  1.53319947E-02  8.98887931E-02 -4.43876957E-01 -7.24814009E-01  4.65742363E-17
  4.03996508E-17 -2.14969021E-17 -1.86469474E-17 -1.63356886E-02 -9.01503398E-02
 -1.61176378E-02 -8.99827301E-02  4.43746271E-01  7.24274686E-01 -1.60598030E-02
 -8.99995956E-02  1.30247684E-03  3.23343319E-04  9.52521433E-04  5.74702221E-04
 -6.85279587E-03 -5.01344211E-03 -1.43956648E-03  1.30998829E-03 -9.27407471E-04
 -5.89017753E-04 -5.30302983E-05  2.68375020E-04  2.36290176E-03  1.90556867E-03
  1.80600898E-03  1.66486578E-03  6.87321439E-18  5.96199709E-18 -4.10888780E-17
 -3.56415145E-17  3.20798868E-03  3.98753057E-03 -8.16909196E-04 -3.71864125E-04
  6.08850869E-04 -1.01817853E-03 -6.62247201E-04 -4.81081333E-04  3.78914382E-03
 -5.27287898E-04 -1.73017152E-03 -2.08832146E-04  7.24518165E-03  4.29774037E-03
 -1.05925777E-03 -5.95202644E-04  1.61562345E-02  9.01805794E-02 -4.43645620E-01
 -7.24465977E-01  1.58554873E-02  9.00087225E-02  1.59257672E-02  8.99567098E-02
 -4.42461001E-17 -3.83801676E-17 -1.76337995E-18 -1.52959980E-18 -1.63913296E-02
 -9.02036567E-02 -1.60420488E-02 -8.97369930E-02 -1.60924838E-02 -8.99824771E-02
  4.43509652E-01  7.24311441E-01 -2.97464869E-04  1.02610115E-04 -2.85940391E-04
  9.08761268E-05  1.72108783E-03  2.41576753E-04  2.97563405E-04 -2.62368095E-04
 -9.35122549E-04 -5.65156826E-04  1.24643394E-03 -1.38586169E-04  3.75294405E-04
  2.52273237E-03  2.62361191E-03  1.33447333E-03 -4.68038548E-17 -4.05988276E-17
  6.71325900E-17  5.82324780E-17 -8.67568982E-04  2.58776956E-04  4.39278180E-04
 -1.94848604E-04 -1.78614842E-03 -8.78149264E-05  2.37766250E-04 -5.25860608E-05
  1.60933139E-02  8.97809798E-02 -4.43552063E-01 -7.24287398E-01  1.61946619E-02
  9.00012458E-02  1.60689043E-02  9.00532550E-02  4.35885691E-04 -2.00485079E-04
 -2.76765693E-03  2.89921091E-04  1.76676174E-04 -5.17134391E-05  2.91926221E-04
 -1.17358980E-04 -1.21074052E-17 -1.05022644E-17  3.32016731E-17  2.87999569E-17
 -8.72817667E-03 -2.01775844E-02  1.47806861E-03  2.73878503E-03  1.35274536E-03
  2.73783721E-03 -6.40640544E-04  3.52993580E-03  8.24227255E-04 -2.98472862E-04
 -2.41470692E-04  5.20983848E-05  5.74733537E-04  5.42085023E-04 -1.09486562E-04
 -5.19635136E-05 -1.63376014E-02 -8.95579460E-02 -1.57019700E-02 -9.01690988E-02
  4.44017278E-01  7.24943019E-01 -1.53087823E-02 -8.99304970E-02  5.38128999E-17
  4.66786477E-17 -1.95134526E-17 -1.69264542E-17 -6.63524389E-04  1.36060186E-04
  4.73765790E-04 -2.31717827E-04 -2.14367444E-03  1.12145779E-04  2.40005121E-04
 -6.15221751E-05 -4.43570972E-01 -7.24266987E-01  1.61080585E-02  8.97712929E-02
  1.60130546E-02  9.01639315E-02  1.61231678E-02  8.99585949E-02 -3.24851896E-04
 -1.59553043E-06  3.06983711E-03  1.36666705E-04 -5.28233340E-04  1.34008223E-04
 -3.80958911E-04  3.57404764E-05 -1.27459380E-17 -1.10561436E-17  6.45007134E-17
  5.59495230E-17 -3.84029680E-03  2.03913302E-04  1.85064233E-03  2.47733593E-04
 -7.11845023E-03 -4.61122398E-03  6.77047751E-04  8.90047723E-04 -1.59661467E-02
 -9.01997810E-02 -1.61735215E-02 -9.00647368E-02  4.43965592E-01  7.24171624E-01
 -1.60516074E-02 -8.98694477E-02  1.23719844E-03  3.57044858E-04 -6.90957835E-03
 -4.74497803E-03 -9.32083753E-05  9.37456100E-04  6.25676523E-04  6.24351729E-04
 -6.30713294E-18 -5.47096396E-18  2.44468470E-17  2.12058030E-17  4.45000894E-01
  7.25050495E-01 -1.60649194E-02 -9.01742574E-02 -1.59786795E-02 -8.99465095E-02
 -1.59947203E-02 -9.00625206E-02  2.69615639E-04  1.06344331E-04  4.83135938E-04
 -6.27294830E-05 -3.08000130E-03 -5.12882047E-04  4.91208886E-04 -1.33972803E-05
  4.92501915E-03  6.05155696E-03 -5.02860473E-03 -1.55533260E-03 -9.86616032E-03
 -1.71197959E-02 -9.22538335E-03 -1.41903810E-02  2.11743915E-17  1.83671938E-17
  1.89658290E-17  1.64514318E-17  6.84689902E-01 -7.20040436E-01 -2.90281152E-01
  3.67288423E-01  1.31013546E-01 -1.08642292E-01 -2.39105845E-01  3.08591964E-01
 -1.16655575E-02  3.90158399E-02 -1.92628782E-01  2.44929370E-01  5.26956559E-01
 -5.70160828E-01 -1.38176023E-01  1.82424187E-01 -5.10968884E-01  6.33885785E-01
  4.46246077E-01 -4.42292161E-01  2.73682553E-01 -2.29152269E-01  2.31243049E-01
 -1.84757848E-01  2.36838291E-16 -2.43965185E-16 -6.80341627E-18 -3.52307993E-17
 -4.53264712E-01  5.02557332E-01 -9.47310170E-02  1.16763248E-01  6.07546846E-01
 -6.88153024E-01 -3.04811952E-02  4.24833415E-02 -1.49770523E-02  4.51241292E-02
 -2.57892338E-01  3.24682258E-01  5.67536396E-01 -6.18430899E-01 -9.47982344E-02
  1.36175377E-01  2.57407569E-01 -3.13270630E-01  4.11232103E-01 -4.93510744E-01
 -4.11488542E-01  4.35646865E-01 -4.18619534E-01  4.46767839E-01  3.46397375E-16
 -3.02762496E-16 -2.35372241E-16  1.56258906E-16  3.44952420E-02 -2.13452053E-02
 -2.29770282E-01  2.81357302E-01  4.91955849E-01 -5.66046050E-01 -2.11143411E-01
  2.59390640E-01 -8.16696443E-01  9.54251417E-01  1.69358090E-01 -2.04367614E-01
  1.53764936E-01 -1.86281894E-01  4.55781963E-01 -5.41459841E-01  1.22700917E-01
 -1.50334441E-01 -5.09727392E-01  5.94069714E-01  1.58348851E-01 -1.91083255E-01
  1.90718499E-01 -2.29253953E-01  3.98628369E-16 -3.39797717E-16  5.43922136E-18
 -1.26360382E-17 -4.45511084E-03  8.70264095E-03 -5.96356004E-01  7.04577140E-01
 -6.54704299E-02  7.79271811E-02  6.71900191E-01 -7.93107403E-01 -5.43834506E-02
  6.26985613E-02  7.20449664E-02 -8.65517476E-02  2.55905697E-02 -3.29342031E-02
 -5.45827496E-02  6.30325407E-02  3.52161982E-02 -4.24221083E-02 -3.60338362E-02
  4.18809941E-02  6.24337901E-01 -7.38198571E-01 -6.29122327E-01  7.41837911E-01
  7.66169529E-16 -7.58123020E-16  2.35333524E-16 -2.38226244E-16 -1.14648557E-02
  1.21440374E-02  4.27354292E-02 -5.01927562E-02  1.79730278E-02 -1.88713087E-02
 -4.56893535E-02  5.47214937E-02 -2.40973481E-01  2.86305969E-01  9.01135398E-01
 -1.06958037E+00  1.79949665E-01 -2.12800562E-01 -8.37214599E-01  9.94462501E-01
  4.05815014E-02 -4.84627214E-02  4.83197422E-03 -4.71836846E-03 -8.11564923E-02
  9.54310794E-02  3.39251266E-02 -4.10536327E-02  3.74446382E-16 -3.52269578E-16
 -2.17119253E-16  3.94824583E-16  9.62944978E-03 -7.42889433E-03  6.32289397E-01
 -7.53295648E-01  4.62396737E-03 -3.98894155E-03 -6.35333463E-01  7.59304621E-01
 -3.83840563E-02  4.59312588E-02  8.48323463E-03 -1.00127711E-02  2.41892634E-02
 -2.85133839E-02  6.66270862E-03 -7.85217423E-03  2.30985247E-02 -2.73332825E-02
  1.41887382E-02 -1.63149620E-02  6.21791266E-01 -7.41275525E-01 -6.56157551E-01
  7.83511219E-01 -3.58092755E-16  3.72709615E-16  3.79137197E-16 -4.22531189E-16
 -2.83023112E-02  4.62672968E-02  3.47226913E-01 -3.97366425E-01 -5.17201977E-01
  6.43755425E-01  3.28469796E-01 -3.74808597E-01 -6.72947951E-01  8.19560734E-01
  1.76648769E-01 -2.02749387E-01  1.48256820E-01 -1.69035485E-01  4.12437123E-01
 -4.86543653E-01 -2.55856911E-01  2.92283467E-01  5.56300596E-01 -6.85107213E-01
 -2.44549680E-01  2.76409378E-01 -1.64977214E-01  1.81004517E-01 -3.18791909E-16
  3.55149176E-16  1.92457896E-16 -1.51427540E-16 -2.01851890E-01  2.02426021E-01
 -2.92538812E-01  3.13621917E-01  4.40767514E-01 -5.86227291E-01 -2.36480447E-01
  2.45499991E-01  2.18818684E-01 -1.93492795E-01  5.08891595E-01 -5.47420479E-01
 -5.84226492E-01  7.92733751E-01  3.46137814E-01 -3.49041357E-01 -5.98297296E-01
  6.53173805E-01  3.51663385E-01 -5.12868867E-01 -9.58490735E-02  3.29926563E-02
 -1.81436543E-01  1.38123145E-01  9.16229646E-16 -8.70094735E-16  3.35344859E-16
 -3.48198495E-16  5.04453736E-01 -7.14825080E-01 -4.05311618E-01  4.22337795E-01
 -2.34636239E-01  2.10494738E-01 -3.77047237E-01  3.87570039E-01  2.42361048E-02
  6.80733464E-03  2.12648672E-01 -2.24159022E-01 -2.13977670E-01  3.00478781E-01
  2.18083781E-01 -2.30808422E-01  8.44228103E-01 -9.03536096E-01  4.03472087E-01
 -3.56508865E-01 -1.79452928E-01  3.78364131E-01 -1.55024595E-01  3.44832254E-01