Jobname.Temp
SP        RO                            6-31G(d)            
Number of atoms                            I               14
Charge                                     I                0
Multiplicity                               I               13
Number of electrons                        I               16
Number of alpha electrons                  I               14
Number of beta electrons                   I                2
Atomic numbers                             I   N=          14
           1           1           1           1           1           1
           1           1           1           1           1           1
           2           2
Current cartesian coordinates              R   N=          42
 -1.39563833E+00 -1.02168043E+00  1.62062912E-01 -4.37169242E+00 -1.92275854E+00
 -1.26643776E+00 -3.96052581E+00  1.23869658E+00 -2.16562614E-02 -4.17712622E+00
 -1.42555270E+00  2.11639877E+00  2.79063416E+00  8.07296670E+00  1.85722284E-01
  3.18418852E-01  9.18448471E+00  2.27798925E+00  3.45574216E-01  5.92391346E+00
  1.24094535E+00 -4.09806007E-01  8.41925901E+00 -9.77800989E-01  6.59230959E+00
 -1.65451191E+00 -1.14970937E-01  4.33973715E+00  9.17991157E-01 -3.60937690E-03
  3.66531279E+00 -2.01588424E+00  1.62501329E+00  3.62048849E+00 -1.90796198E+00
 -1.79565556E+00  1.88972612E+01  1.88972612E+01  1.88972612E+01 -1.88972612E+01
  1.88972612E+01  1.88972612E+01
Nuclear charges                            R   N=          14
  1.00000000E+00  1.00000000E+00  1.00000000E+00  1.00000000E+00  1.00000000E+00
  1.00000000E+00  1.00000000E+00  1.00000000E+00  1.00000000E+00  1.00000000E+00
  1.00000000E+00  1.00000000E+00  2.00000000E+00  2.00000000E+00
Number of basis functions                  I               28
Number of contracted shells                I               28
Number of primitive shells                 I               56
Highest angular momentum                   I                0
Largest degree of contraction              I                3
Shell types                                I   N=          28
           0           0           0           0           0           0
           0           0           0           0           0           0
           0           0           0           0           0           0
           0           0           0           0           0           0
           0           0           0           0
Number of primitives per shell             I   N=          28
           3           1           3           1           3           1
           3           1           3           1           3           1
           3           1           3           1           3           1
           3           1           3           1           3           1
           3           1           3           1
Shell to atom map                          I   N=          28
           1           1           2           2           3           3
           4           4           5           5           6           6
           7           7           8           8           9           9
          10          10          11          11          12          12
          13          13          14          14
Primitive exponents                        R   N=          56
  1.87311370E+01  2.82539370E+00  6.40121700E-01  1.61277800E-01  1.87311370E+01
  2.82539370E+00  6.40121700E-01  1.61277800E-01  1.87311370E+01  2.82539370E+00
  6.40121700E-01  1.61277800E-01  1.87311370E+01  2.82539370E+00  6.40121700E-01
  1.61277800E-01  1.87311370E+01  2.82539370E+00  6.40121700E-01  1.61277800E-01
  1.87311370E+01  2.82539370E+00  6.40121700E-01  1.61277800E-01  1.87311370E+01
  2.82539370E+00  6.40121700E-01  1.61277800E-01  1.87311370E+01  2.82539370E+00
  6.40121700E-01  1.61277800E-01  1.87311370E+01  2.82539370E+00  6.40121700E-01
  1.61277800E-01  1.87311370E+01  2.82539370E+00  6.40121700E-01  1.61277800E-01
  1.87311370E+01  2.82539370E+00  6.40121700E-01  1.61277800E-01  1.87311370E+01
  2.82539370E+00  6.40121700E-01  1.61277800E-01  3.84216340E+01  5.77803000E+00
  1.24177400E+00  2.97964000E-01  3.84216340E+01  5.77803000E+00  1.24177400E+00
  2.97964000E-01
Contraction coefficients                   R   N=          56
  3.34945995E-02  2.34726947E-01  8.13757318E-01  1.00000000E+00  3.34945995E-02
  2.34726947E-01  8.13757318E-01  1.00000000E+00  3.34945995E-02  2.34726947E-01
  8.13757318E-01  1.00000000E+00  3.34945995E-02  2.34726947E-01  8.13757318E-01
  1.00000000E+00  3.34945995E-02  2.34726947E-01  8.13757318E-01  1.00000000E+00
  3.34945995E-02  2.34726947E-01  8.13757318E-01  1.00000000E+00  3.34945995E-02
  2.34726947E-01  8.13757318E-01  1.00000000E+00  3.34945995E-02  2.34726947E-01
  8.13757318E-01  1.00000000E+00  3.34945995E-02  2.34726947E-01  8.13757318E-01
  1.00000000E+00  3.34945995E-02  2.34726947E-01  8.13757318E-01  1.00000000E+00
  3.34945995E-02  2.34726947E-01  8.13757318E-01  1.00000000E+00  3.34945995E-02
  2.34726947E-01  8.13757318E-01  1.00000000E+00  4.01397393E-02  2.61246097E-01
  7.93184625E-01  1.00000000E+00  4.01397393E-02  2.61246097E-01  7.93184625E-01
  1.00000000E+00
Coordinates of each shell                  R   N=          84
 -1.39563833E+00 -1.02168043E+00  1.62062912E-01 -1.39563833E+00 -1.02168043E+00
  1.62062912E-01 -4.37169242E+00 -1.92275854E+00 -1.26643776E+00 -4.37169242E+00
 -1.92275854E+00 -1.26643776E+00 -3.96052581E+00  1.23869658E+00 -2.16562614E-02
 -3.96052581E+00  1.23869658E+00 -2.16562614E-02 -4.17712622E+00 -1.42555270E+00
  2.11639877E+00 -4.17712622E+00 -1.42555270E+00  2.11639877E+00  2.79063416E+00
  8.07296670E+00  1.85722284E-01  2.79063416E+00  8.07296670E+00  1.85722284E-01
  3.18418852E-01  9.18448471E+00  2.27798925E+00  3.18418852E-01  9.18448471E+00
  2.27798925E+00  3.45574216E-01  5.92391346E+00  1.24094535E+00  3.45574216E-01
  5.92391346E+00  1.24094535E+00 -4.09806007E-01  8.41925901E+00 -9.77800989E-01
 -4.09806007E-01  8.41925901E+00 -9.77800989E-01  6.59230959E+00 -1.65451191E+00
 -1.14970937E-01  6.59230959E+00 -1.65451191E+00 -1.14970937E-01  4.33973715E+00
  9.17991157E-01 -3.60937690E-03  4.33973715E+00  9.17991157E-01 -3.60937690E-03
  3.66531279E+00 -2.01588424E+00  1.62501329E+00  3.66531279E+00 -2.01588424E+00
  1.62501329E+00  3.62048849E+00 -1.90796198E+00 -1.79565556E+00  3.62048849E+00
 -1.90796198E+00 -1.79565556E+00  1.88972612E+01  1.88972612E+01  1.88972612E+01
  1.88972612E+01  1.88972612E+01  1.88972612E+01 -1.88972612E+01  1.88972612E+01
  1.88972612E+01 -1.88972612E+01  1.88972612E+01  1.88972612E+01
SCF Energy                                 R     -1.147203175425638E+01
Number of independent functions            I               28
Alpha MO coefficients                      R   N=         784
 -5.99057821E-22  4.64439263E-22 -1.68084411E-21  3.01177774E-21  4.63242721E-21
 -7.16682109E-21 -3.69293785E-21  6.01890095E-21 -5.17574263E-22  1.23833712E-21
 -1.29817191E-21  2.90390909E-21 -6.17730964E-22  1.40982488E-21  4.24499659E-21
 -6.40573966E-21 -2.82364181E-21  4.06185185E-21  1.58796740E-21 -3.18526045E-21
 -6.08250170E-22  5.09018958E-22 -4.79775807E-22  8.45279006E-22 -5.92081261E-01
 -5.13586011E-01 -4.23304510E-21  4.37029029E-21  3.73070941E-16  2.94151099E-16
 -2.97310123E-17 -3.32873840E-16 -3.94650288E-18 -4.24373200E-17 -3.75326153E-16
 -4.04587908E-17 -3.34270261E-16  1.01900377E-17 -3.54299134E-18  3.01878895E-16
  2.38964989E-16 -9.28342796E-17 -3.49717214E-16 -1.98883756E-16 -1.82562372E-16
 -5.27585692E-17  1.53517177E-16  1.14252618E-17 -1.42492586E-17 -4.42685950E-17
 -1.80595708E-16 -2.51932983E-16  4.93026334E-18 -5.08951797E-18 -5.92081261E-01
 -5.13586011E-01  1.64409110E-02  9.03498819E-02 -4.43545279E-01 -7.24350528E-01
  1.61020350E-02  8.99622030E-02  1.60412450E-02  8.97559949E-02  4.15128428E-04
 -2.39071985E-04  3.82801486E-04 -2.04186949E-04 -2.65553663E-03  4.12950605E-04
 -9.04616261E-05  9.65906408E-05  9.74606192E-04  5.54103436E-04 -1.43642957E-03
  2.32136160E-04 -2.51759160E-03 -1.87658573E-03 -4.81360142E-04 -2.08841423E-03
  9.26440780E-18  8.03617772E-18 -2.18887125E-16 -1.89868136E-16  6.27548963E-04
 -1.97550956E-04 -6.35720041E-05 -3.44675901E-05 -5.49820278E-04  6.82049466E-04
  1.28339351E-04 -1.83764153E-04 -1.61137140E-02 -8.99700188E-02 -1.60741891E-02
 -9.00264467E-02 -1.60948883E-02 -8.98681445E-02  4.43536023E-01  7.24294890E-01
 -2.95955521E-04  1.22387450E-04  1.88909876E-03 -1.30615464E-04 -9.26490047E-05
  4.92161963E-06 -2.40608828E-04  1.07747483E-04  2.74377501E-17  2.38001868E-17
  2.94800630E-16  2.55717398E-16  7.56802171E-03  4.10264208E-03 -8.26089328E-04
 -4.50160311E-04 -7.44341485E-04 -4.85354327E-04 -7.76218424E-04 -4.65428425E-04
  5.89258156E-04 -2.03528086E-04 -3.79554428E-04  2.04741914E-04  1.79833399E-03
 -1.56200352E-04 -2.55690655E-04  1.04399360E-04  4.43804383E-01  7.24060662E-01
 -1.63468696E-02 -9.00688836E-02 -1.67819849E-02 -8.97510610E-02 -1.67011954E-02
 -8.98252791E-02  2.16960549E-17  1.88196976E-17  3.06636119E-17  2.65983796E-17
 -7.96481370E-03 -1.71285645E-02 -4.83302184E-04  3.07258353E-03  8.72789786E-04
  2.50318451E-03  1.66184821E-03  2.11940867E-03  6.10303982E-04 -2.28303914E-04
 -2.91203862E-04  1.24911056E-04  1.24946365E-03  9.93070687E-05 -2.31444920E-04
  8.01925419E-05 -1.62966594E-02 -8.97123639E-02 -1.57789072E-02 -9.00871749E-02
 -1.53332553E-02 -8.98871061E-02  4.43877278E-01  7.24813865E-01 -6.75953285E-17
 -5.86338690E-17  1.71829785E-16  1.49049429E-16  1.63665347E-02  9.01306349E-02
  1.61085794E-02  8.99945629E-02 -4.43707982E-01 -7.24272037E-01  1.60593372E-02
  9.00024360E-02 -1.18524048E-03 -1.64210647E-04 -9.10362237E-04 -3.70760413E-04
  6.45978447E-03  3.82203613E-03  1.16695511E-03 -1.14180876E-03  9.18803886E-04
  5.95205777E-04  1.04108496E-04 -2.79649981E-04 -2.36381331E-03 -1.90535462E-03
 -1.81144809E-03 -1.66067141E-03  1.67461432E-18  1.45260213E-18 -6.98463980E-18
 -6.05865026E-18  3.23506583E-03  3.97089016E-03 -8.30166429E-04 -3.58550404E-04
  6.62633146E-04 -1.03281983E-03 -6.68580331E-04 -4.74706391E-04  3.25884526E-03
 -7.17393728E-04 -1.56664171E-03  7.87719641E-06  6.76098585E-03  3.14299688E-03
 -9.89487151E-04 -3.46671467E-04  1.61504060E-02  9.01876912E-02 -4.43589150E-01
 -7.24485009E-01  1.58585055E-02  9.00082571E-02  1.59219271E-02  8.99635698E-02
 -6.66432666E-17 -5.78080268E-17  8.47592664E-17  7.35222956E-17  1.63862826E-02
  9.02065355E-02  1.60454313E-02  8.97334312E-02  1.60809832E-02  8.99842582E-02
 -4.43510391E-01 -7.24310477E-01  2.71379521E-04 -1.18056242E-04  2.62855848E-04
 -1.08207545E-04 -1.61413130E-03 -6.48491561E-05 -2.31000027E-04  2.08634543E-04
  9.37278499E-04  5.62436475E-04 -1.25959202E-03  1.46837754E-04 -3.74913399E-04
 -2.52335813E-03 -2.62205542E-03 -1.33648724E-03  2.98626268E-17  2.59035852E-17
 -1.59701043E-16 -1.38528657E-16  7.34847168E-04 -2.54469061E-04 -3.94470748E-04
  2.05092642E-04  1.66338206E-03 -4.36404975E-05 -2.21367812E-04  7.72900550E-05
 -1.60875498E-02 -8.97875750E-02  4.43548624E-01  7.24294141E-01 -1.61635842E-02
 -9.00195889E-02 -1.60723604E-02 -9.00468993E-02 -3.86503462E-04  2.04510736E-04
  2.49171378E-03 -4.23432487E-04 -1.71398481E-04  7.59503008E-05 -2.68660512E-04
  1.35915643E-04 -3.86606944E-17 -3.35352478E-17 -2.06237455E-16 -1.78895498E-16
 -8.72603483E-03 -2.01780788E-02  1.47683580E-03  2.73948175E-03  1.35757147E-03
  2.73820667E-03 -6.41064233E-04  3.52988103E-03  7.03794823E-04 -2.95723665E-04
 -2.23998324E-04  7.54152956E-05  6.19508148E-04  3.77839363E-04 -1.13593413E-04
 -1.39169271E-05 -1.63378604E-02 -8.95583944E-02 -1.56974948E-02 -9.01663626E-02
  4.44018349E-01  7.24941337E-01 -1.53098775E-02 -8.99297478E-02 -2.83218870E-17
 -2.45671091E-17 -1.70569072E-17 -1.47955855E-17  5.69977109E-04 -1.55223310E-04
 -4.20513063E-04  2.35077992E-04  1.94382815E-03 -2.08144385E-04 -2.23355168E-04
  8.60378050E-05  4.43562328E-01  7.24275333E-01 -1.61032941E-02 -8.97762471E-02
 -1.60263329E-02 -9.01525616E-02 -1.61167679E-02 -8.99681495E-02  2.74414204E-04
 -4.13619959E-05 -2.60375129E-03  1.48737111E-04  4.47834903E-04 -1.60077745E-04
  3.25552830E-04 -7.40528936E-05  2.46662666E-17  2.13961331E-17  5.19092861E-17
  4.50274057E-17 -3.32834584E-03  4.78123749E-04  1.67603711E-03  2.81149176E-05
 -6.69621392E-03 -3.48562743E-03  6.75894263E-04  6.15158113E-04 -1.59941284E-02
 -9.01825145E-02 -1.61612804E-02 -9.00820172E-02  4.43871880E-01  7.24182915E-01
 -1.60583422E-02 -8.98690200E-02  1.12352597E-03  1.97117832E-04 -6.46792530E-03
 -3.50965913E-03  1.35328258E-05  7.14735168E-04  6.14196188E-04  4.23665320E-04
 -9.42221075E-17 -8.17305993E-17  7.18051242E-17  6.22855505E-17 -4.44993638E-01
 -7.25054609E-01  1.60576462E-02  9.01830787E-02  1.60037286E-02  8.99317059E-02
  1.59936234E-02  9.00654623E-02 -2.31352408E-04 -4.36320151E-05 -4.03790090E-04
  9.53013180E-05  2.63482912E-03  1.40925547E-04 -4.38451034E-04  7.78251220E-05
 -4.92823512E-03 -6.04822337E-03  5.04995529E-03  1.54508346E-03  9.86546013E-03
  1.71204572E-02  9.22182950E-03  1.41941409E-02  2.60563721E-18  2.26019452E-18
  4.22607281E-16  3.66580066E-16 -7.32705061E-01  7.75240621E-01  2.81184769E-01
 -3.55619071E-01 -6.30506285E-02  3.48575844E-02  2.40672104E-01 -3.09032801E-01
  1.58705164E-02 -3.85715409E-02  1.58806910E-01 -2.01725128E-01 -4.44302982E-01
  4.84222076E-01  1.23309389E-01 -1.60833170E-01  5.44300564E-01 -6.74289011E-01
 -3.97185547E-01  3.86652793E-01 -3.19087777E-01  2.77718413E-01 -2.80931104E-01
  2.38447840E-01  2.42576031E-16 -2.46315235E-16  4.82163540E-16 -4.88183268E-16
 -3.71609932E-01  4.14832107E-01 -1.28550250E-01  1.59207495E-01  6.19766510E-01
 -7.00314460E-01 -6.54235473E-02  8.61310038E-02 -3.52604232E-02  6.91211937E-02
 -2.72652268E-01  3.42860223E-01  6.34426632E-01 -6.96972665E-01 -1.22809208E-01
  1.69384885E-01  1.89604851E-01 -2.29548821E-01  4.55026566E-01 -5.38288116E-01
 -3.76335307E-01  4.04962756E-01 -3.82070903E-01  4.13997334E-01 -5.12823571E-16
  4.53832921E-16 -8.20471017E-16  7.45100861E-16 -3.32908415E-02  2.17479595E-02
  2.11271946E-01 -2.58410785E-01 -4.79067405E-01  5.53949003E-01  2.27398325E-01
 -2.77345446E-01  8.23298500E-01 -9.64444973E-01 -1.79924068E-01  2.16749853E-01
 -1.43207424E-01  1.73745250E-01 -4.65523706E-01  5.53488928E-01 -1.21219589E-01
  1.47945524E-01  5.03693624E-01 -5.89022713E-01 -1.40933450E-01  1.69991287E-01
 -2.09914123E-01  2.51338132E-01  4.82967277E-16 -4.99430760E-16 -3.04188986E-16
  1.38811294E-16 -2.89723089E-03  7.27563806E-03 -6.06723526E-01  7.17068539E-01
 -4.76706246E-02  5.70573314E-02  6.64560154E-01 -7.84232292E-01 -7.16208987E-02
  8.33272451E-02  6.08563928E-02 -7.30912552E-02  2.61159196E-02 -3.29897007E-02
 -2.46708711E-02  2.79430877E-02  3.54706366E-02 -4.27474597E-02 -4.39493747E-02
  5.11859271E-02  6.28295568E-01 -7.42847497E-01 -6.25468175E-01  7.37571936E-01
  3.75601073E-16 -3.81250204E-16  8.46322470E-16 -7.39203216E-16  8.74023007E-03
 -9.15080450E-03 -3.24004544E-02  3.80297435E-02 -1.33284846E-02  1.39203673E-02
  3.42636877E-02 -4.10575829E-02  2.37371180E-01 -2.81907285E-01 -9.09865826E-01
  1.08003384E+00 -1.64892420E-01  1.95108707E-01  8.35321722E-01 -9.92084566E-01
 -3.22263995E-02  3.84801268E-02 -2.96797352E-03  2.75777554E-03  6.21772243E-02
 -7.31068084E-02 -2.55541729E-02  3.09337990E-02  2.25165503E-16 -2.67676302E-16
  1.57863562E-16 -1.33365331E-16 -9.47028681E-03  7.23538984E-03 -6.35161898E-01
  7.56665053E-01  1.36306705E-03 -3.17235280E-03  6.31754955E-01 -7.55092675E-01
  4.53814911E-02 -5.42791061E-02 -8.06430189E-03  9.50713682E-03 -2.63150492E-02
  3.11221815E-02 -1.18952345E-02  1.40958425E-02 -2.09517811E-02  2.48080912E-02
 -1.84631923E-02  2.14752501E-02 -6.20576527E-01  7.39871703E-01  6.57369592E-01
 -7.84907095E-01  3.43962013E-16 -3.47706154E-16 -1.37626519E-16  1.67297902E-16
  2.60558794E-02 -3.94162135E-02 -3.32326440E-01  3.82462685E-01  5.27513398E-01
 -6.50974023E-01 -3.26103012E-01  3.74986609E-01  6.62707328E-01 -8.04609624E-01
 -1.79804738E-01  2.07138499E-01 -1.32812757E-01  1.51132060E-01 -4.07970399E-01
  4.81256200E-01  2.48410730E-01 -2.85399031E-01 -5.72896854E-01  7.01202441E-01
  2.53661824E-01 -2.89701582E-01  1.62244002E-01 -1.80196801E-01  1.40396802E-15
 -1.46146262E-15  1.21166002E-15 -1.28878100E-15 -1.26119909E-01  1.04032758E-01
 -3.31581911E-01  3.57731266E-01  4.26193938E-01 -5.69420882E-01 -2.79880391E-01
  2.94980242E-01  2.19214877E-01 -1.99173916E-01  5.08788427E-01 -5.51659172E-01
 -6.36175780E-01  8.47820342E-01  3.61430791E-01 -3.72339541E-01 -4.58698019E-01
  5.03379004E-01  4.10021075E-01 -5.59632056E-01 -1.24439739E-01  9.26216233E-02
 -2.02504107E-01  1.87944204E-01 -2.18163075E-15  2.16685278E-15 -6.73962205E-16
  7.65406830E-16 -5.29936135E-01  7.36154384E-01  3.60343383E-01 -3.76257886E-01
  2.79206035E-01 -2.75360862E-01  3.41156222E-01 -3.52589455E-01  1.00537211E-04
 -2.16038269E-02 -1.29266090E-01  1.36767410E-01  1.36074368E-01 -1.88620300E-01
 -1.48871063E-01  1.60735148E-01 -9.26859709E-01  9.93503593E-01 -3.49731322E-01
  2.78237834E-01  1.62488464E-01 -3.69133486E-01  1.26600026E-01 -3.21500184E-01
  1.71362984E-16 -1.67262611E-16  9.34167269E-16 -9.16370063E-16 -2.89501900E-01
  5.59558950E-02 -5.49948915E-01  4.01121084E-01 -5.07622662E-01  3.47184064E-01
 -5.47378327E-01  3.97808842E-01 -4.11001813E-01  2.92428497E-01 -4.25639656E-01
  3.11081867E-01 -2.20971595E-01  4.92820683E-02 -3.95888101E-01  2.73442322E-01
 -3.21796917E-01  2.39192453E-01 -2.02643605E-01  8.70001586E-02 -2.75471528E-01
  1.77849479E-01 -2.77071863E-01  1.80235624E-01  1.46438454E-15 -1.50197723E-15
  2.35495684E-16 -8.43441419E-17 -2.42765873E-01  1.08583682E-01 -2.59824855E-01
  1.35568249E-01 -4.67867752E-01  4.05831068E-01 -2.73654119E-01  1.53181029E-01
  5.14759753E-01 -3.09069674E-01  4.62648907E-01 -2.42142292E-01  7.30967464E-01
 -5.90563524E-01  4.95162357E-01 -2.83749194E-01 -1.39916495E-01  7.55148921E-02
 -3.34865179E-01  3.27496189E-01 -9.68278543E-02  1.56267419E-02 -8.73231449E-02
  4.09648216E-03 -6.68499123E-16  6.90915994E-16 -2.33197352E-15  2.58666774E-15
 -7.60715060E-01  8.18504644E-01 -1.84453760E-01  1.99041629E-02 -1.88515316E-01
  2.54431062E-02 -1.88446999E-01  2.53108504E-02 -5.53749321E-02  6.01506767E-02
 -1.02268493E-02  1.07181118E-03 -1.56630774E-03 -9.29777200E-03 -7.66805956E-03
 -2.25373604E-03  2.52926162E-01  1.87855838E-02  5.29077658E-01 -3.52290828E-01
  6.65103703E-01 -5.50887746E-01  6.46408727E-01 -5.22469383E-01  4.86128967E-15
 -5.03040343E-15  1.80699576E-15 -1.89667273E-15  3.78118728E-15 -3.77546923E-15
  1.54678358E-15 -6.67264859E-16  2.16946487E-15 -1.27942648E-15  5.46907216E-16
  5.92339638E-16  2.55586257E-16  2.85343347E-16  2.65430035E-15 -2.51809523E-15
 -3.84639703E-16  1.21103992E-15  2.18921761E-15 -1.98499091E-15 -2.09457625E-15
  1.06841024E-15 -3.63394604E-16 -6.37969346E-16 -2.87883680E-15  2.61795384E-15
 -3.61952678E-15  3.20315335E-15  1.14981805E+00 -1.18695880E+00  2.04032240E-10
 -2.10622753E-10 -1.27285829E-15  1.96331386E-15  1.94355570E-16 -5.54775911E-17
  8.71718127E-16 -1.11034714E-15  1.04627379E-15 -1.15922165E-15 -8.62617720E-16
  1.01741497E-16 -1.73613536E-15  1.16657808E-15 -2.27384284E-15  1.68499619E-15
 -1.91766950E-15  1.37381205E-15  7.25609707E-16 -2.32214306E-16 -6.69649027E-16
  1.29349964E-15  2.95009562E-15 -3.03419304E-15  1.38035867E-15 -1.19441983E-15
  2.04033087E-10 -2.10623623E-10 -1.14981805E+00  1.18695880E+00
Beta MO coefficients                       R   N=         784
 -5.99057821E-22  4.64439263E-22 -1.68084411E-21  3.01177774E-21  4.63242721E-21
 -7.16682109E-21 -3.69293785E-21  6.01890095E-21 -5.17574263E-22  1.23833712E-21
 -1.29817191E-21  2.90390909E-21 -6.17730964E-22  1.40982488E-21  4.24499659E-21
 -6.40573966E-21 -2.82364181E-21  4.06185185E-21  1.58796740E-21 -3.18526045E-21
 -6.08250170E-22  5.09018958E-22 -4.79775807E-22  8.45279006E-22 -5.92081261E-01
 -5.13586011E-01 -4.23304510E-21  4.37029029E-21  3.73070941E-16  2.94151099E-16
 -2.97310123E-17 -3.32873840E-16 -3.94650288E-18 -4.24373200E-17 -3.75326153E-16
 -4.04587908E-17 -3.34270261E-16  1.01900377E-17 -3.54299134E-18  3.01878895E-16
  2.38964989E-16 -9.28342796E-17 -3.49717214E-16 -1.98883756E-16 -1.82562372E-16
 -5.27585692E-17  1.53517177E-16  1.14252618E-17 -1.42492586E-17 -4.42685950E-17
 -1.80595708E-16 -2.51932983E-16  4.93026334E-18 -5.08951797E-18 -5.92081261E-01
 -5.13586011E-01  1.64409110E-02  9.03498819E-02 -4.43545279E-01 -7.24350528E-01
  1.61020350E-02  8.99622030E-02  1.60412450E-02  8.97559949E-02  4.15128428E-04
 -2.39071985E-04  3.82801486E-04 -2.04186949E-04 -2.65553663E-03  4.12950605E-04
 -9.04616261E-05  9.65906408E-05  9.74606192E-04  5.54103436E-04 -1.43642957E-03
  2.32136160E-04 -2.51759160E-03 -1.87658573E-03 -4.81360142E-04 -2.08841423E-03
  9.26440780E-18  8.03617772E-18 -2.18887125E-16 -1.89868136E-16  6.27548963E-04
 -1.97550956E-04 -6.35720041E-05 -3.44675901E-05 -5.49820278E-04  6.82049466E-04
  1.28339351E-04 -1.83764153E-04 -1.61137140E-02 -8.99700188E-02 -1.60741891E-02
 -9.00264467E-02 -1.60948883E-02 -8.98681445E-02  4.43536023E-01  7.24294890E-01
 -2.95955521E-04  1.22387450E-04  1.88909876E-03 -1.30615464E-04 -9.26490047E-05
  4.92161963E-06 -2.40608828E-04  1.07747483E-04  2.74377501E-17  2.38001868E-17
  2.94800630E-16  2.55717398E-16  7.56802171E-03  4.10264208E-03 -8.26089328E-04
 -4.50160311E-04 -7.44341485E-04 -4.85354327E-04 -7.76218424E-04 -4.65428425E-04
  5.89258156E-04 -2.03528086E-04 -3.79554428E-04  2.04741914E-04  1.79833399E-03
 -1.56200352E-04 -2.55690655E-04  1.04399360E-04  4.43804383E-01  7.24060662E-01
 -1.63468696E-02 -9.00688836E-02 -1.67819849E-02 -8.97510610E-02 -1.67011954E-02
 -8.98252791E-02  2.16960549E-17  1.88196976E-17  3.06636119E-17  2.65983796E-17
 -7.96481370E-03 -1.71285645E-02 -4.83302184E-04  3.07258353E-03  8.72789786E-04
  2.50318451E-03  1.66184821E-03  2.11940867E-03  6.10303982E-04 -2.28303914E-04
 -2.91203862E-04  1.24911056E-04  1.24946365E-03  9.93070687E-05 -2.31444920E-04
  8.01925419E-05 -1.62966594E-02 -8.97123639E-02 -1.57789072E-02 -9.00871749E-02
 -1.53332553E-02 -8.98871061E-02  4.43877278E-01  7.24813865E-01 -6.75953285E-17
 -5.86338690E-17  1.71829785E-16  1.49049429E-16  1.63665347E-02  9.01306349E-02
  1.61085794E-02  8.99945629E-02 -4.43707982E-01 -7.24272037E-01  1.60593372E-02
  9.00024360E-02 -1.18524048E-03 -1.64210647E-04 -9.10362237E-04 -3.70760413E-04
  6.45978447E-03  3.82203613E-03  1.16695511E-03 -1.14180876E-03  9.18803886E-04
  5.95205777E-04  1.04108496E-04 -2.79649981E-04 -2.36381331E-03 -1.90535462E-03
 -1.81144809E-03 -1.66067141E-03  1.67461432E-18  1.45260213E-18 -6.98463980E-18
 -6.05865026E-18  3.23506583E-03  3.97089016E-03 -8.30166429E-04 -3.58550404E-04
  6.62633146E-04 -1.03281983E-03 -6.68580331E-04 -4.74706391E-04  3.25884526E-03
 -7.17393728E-04 -1.56664171E-03  7.87719641E-06  6.76098585E-03  3.14299688E-03
 -9.89487151E-04 -3.46671467E-04  1.61504060E-02  9.01876912E-02 -4.43589150E-01
 -7.24485009E-01  1.58585055E-02  9.00082571E-02  1.59219271E-02  8.99635698E-02
 -6.66432666E-17 -5.78080268E-17  8.47592664E-17  7.35222956E-17  1.63862826E-02
  9.02065355E-02  1.60454313E-02  8.97334312E-02  1.60809832E-02  8.99842582E-02
 -4.43510391E-01 -7.24310477E-01  2.71379521E-04 -1.18056242E-04  2.62855848E-04
 -1.08207545E-04 -1.61413130E-03 -6.48491561E-05 -2.31000027E-04  2.08634543E-04
  9.37278499E-04  5.62436475E-04 -1.25959202E-03  1.46837754E-04 -3.74913399E-04
 -2.52335813E-03 -2.62205542E-03 -1.33648724E-03  2.98626268E-17  2.59035852E-17
 -1.59701043E-16 -1.38528657E-16  7.34847168E-04 -2.54469061E-04 -3.94470748E-04
  2.05092642E-04  1.66338206E-03 -4.36404975E-05 -2.21367812E-04  7.72900550E-05
 -1.60875498E-02 -8.97875750E-02  4.43548624E-01  7.24294141E-01 -1.61635842E-02
 -9.00195889E-02 -1.60723604E-02 -9.00468993E-02 -3.86503462E-04  2.04510736E-04
  2.49171378E-03 -4.23432487E-04 -1.71398481E-04  7.59503008E-05 -2.68660512E-04
  1.35915643E-04 -3.86606944E-17 -3.35352478E-17 -2.06237455E-16 -1.78895498E-16
 -8.72603483E-03 -2.01780788E-02  1.47683580E-03  2.73948175E-03  1.35757147E-03
  2.73820667E-03 -6.41064233E-04  3.52988103E-03  7.03794823E-04 -2.95723665E-04
 -2.23998324E-04  7.54152956E-05  6.19508148E-04  3.77839363E-04 -1.13593413E-04
 -1.39169271E-05 -1.63378604E-02 -8.95583944E-02 -1.56974948E-02 -9.01663626E-02
  4.44018349E-01  7.24941337E-01 -1.53098775E-02 -8.99297478E-02 -2.83218870E-17
 -2.45671091E-17 -1.70569072E-17 -1.47955855E-17  5.69977109E-04 -1.55223310E-04
 -4.20513063E-04  2.35077992E-04  1.94382815E-03 -2.08144385E-04 -2.23355168E-04
  8.60378050E-05  4.43562328E-01  7.24275333E-01 -1.61032941E-02 -8.97762471E-02
 -1.60263329E-02 -9.01525616E-02 -1.61167679E-02 -8.99681495E-02  2.74414204E-04
 -4.13619959E-05 -2.60375129E-03  1.48737111E-04  4.47834903E-04 -1.60077745E-04
  3.25552830E-04 -7.40528936E-05  2.46662666E-17  2.13961331E-17  5.19092861E-17
  4.50274057E-17 -3.32834584E-03  4.78123749E-04  1.67603711E-03  2.81149176E-05
 -6.69621392E-03 -3.48562743E-03  6.75894263E-04  6.15158113E-04 -1.59941284E-02
 -9.01825145E-02 -1.61612804E-02 -9.00820172E-02  4.43871880E-01  7.24182915E-01
 -1.60583422E-02 -8.98690200E-02  1.12352597E-03  1.97117832E-04 -6.46792530E-03
 -3.50965913E-03  1.35328258E-05  7.14735168E-04  6.14196188E-04  4.23665320E-04
 -9.42221075E-17 -8.17305993E-17  7.18051242E-17  6.22855505E-17 -4.44993638E-01
 -7.25054609E-01  1.60576462E-02  9.01830787E-02  1.60037286E-02  8.99317059E-02
  1.59936234E-02  9.00654623E-02 -2.31352408E-04 -4.36320151E-05 -4.03790090E-04
  9.53013180E-05  2.63482912E-03  1.40925547E-04 -4.38451034E-04  7.78251220E-05
 -4.92823512E-03 -6.04822337E-03  5.04995529E-03  1.54508346E-03  9.86546013E-03
  1.71204572E-02  9.22182950E-03  1.41941409E-02  2.60563721E-18  2.26019452E-18
  4.22607281E-16  3.66580066E-16 -7.32705061E-01  7.75240621E-01  2.81184769E-01
 -3.55619071E-01 -6.30506285E-02  3.48575844E-02  2.40672104E-01 -3.09032801E-01
  1.58705164E-02 -3.85715409E-02  1.58806910E-01 -2.01725128E-01 -4.44302982E-01
  4.84222076E-01  1.23309389E-01 -1.60833170E-01  5.44300564E-01 -6.74289011E-01
 -3.97185547E-01  3.86652793E-01 -3.19087777E-01  2.77718413E-01 -2.80931104E-01
  2.38447840E-01  2.42576031E-16 -2.46315235E-16  4.82163540E-16 -4.88183268E-16
 -3.71609932E-01  4.14832107E-01 -1.28550250E-01  1.59207495E-01  6.19766510E-01
 -7.00314460E-01 -6.54235473E-02  8.61310038E-02 -3.52604232E-02  6.91211937E-02
 -2.72652268E-01  3.42860223E-01  6.34426632E-01 -6.96972665E-01 -1.22809208E-01
  1.69384885E-01  1.89604851E-01 -2.29548821E-01  4.55026566E-01 -5.38288116E-01
 -3.76335307E-01  4.04962756E-01 -3.82070903E-01  4.13997334E-01 -5.12823571E-16
  4.53832921E-16 -8.20471017E-16  7.45100861E-16 -3.32908415E-02  2.17479595E-02
  2.11271946E-01 -2.58410785E-01 -4.79067405E-01  5.53949003E-01  2.27398325E-01
 -2.77345446E-01  8.23298500E-01 -9.64444973E-01 -1.79924068E-01  2.16749853E-01
 -1.43207424E-01  1.73745250E-01 -4.65523706E-01  5.53488928E-01 -1.21219589E-01
  1.47945524E-01  5.03693624E-01 -5.89022713E-01 -1.40933450E-01  1.69991287E-01
 -2.09914123E-01  2.51338132E-01  4.82967277E-16 -4.99430760E-16 -3.04188986E-16
  1.38811294E-16 -2.89723089E-03  7.27563806E-03 -6.06723526E-01  7.17068539E-01
 -4.76706246E-02  5.70573314E-02  6.64560154E-01 -7.84232292E-01 -7.16208987E-02
  8.33272451E-02  6.08563928E-02 -7.30912552E-02  2.61159196E-02 -3.29897007E-02
 -2.46708711E-02  2.79430877E-02  3.54706366E-02 -4.27474597E-02 -4.39493747E-02
  5.11859271E-02  6.28295568E-01 -7.42847497E-01 -6.25468175E-01  7.37571936E-01
  3.75601073E-16 -3.81250204E-16  8.46322470E-16 -7.39203216E-16  8.74023007E-03
 -9.15080450E-03 -3.24004544E-02  3.80297435E-02 -1.33284846E-02  1.39203673E-02
  3.42636877E-02 -4.10575829E-02  2.37371180E-01 -2.81907285E-01 -9.09865826E-01
  1.08003384E+00 -1.64892420E-01  1.95108707E-01  8.35321722E-01 -9.92084566E-01
 -3.22263995E-02  3.84801268E-02 -2.96797352E-03  2.75777554E-03  6.21772243E-02
 -7.31068084E-02 -2.55541729E-02  3.09337990E-02  2.25165503E-16 -2.67676302E-16
  1.57863562E-16 -1.33365331E-16 -9.47028681E-03  7.23538984E-03 -6.35161898E-01
  7.56665053E-01  1.36306705E-03 -3.17235280E-03  6.31754955E-01 -7.55092675E-01
  4.53814911E-02 -5.42791061E-02 -8.06430189E-03  9.50713682E-03 -2.63150492E-02
  3.11221815E-02 -1.18952345E-02  1.40958425E-02 -2.09517811E-02  2.48080912E-02
 -1.84631923E-02  2.14752501E-02 -6.20576527E-01  7.39871703E-01  6.57369592E-01
 -7.84907095E-01  3.43962013E-16 -3.47706154E-16 -1.37626519E-16  1.67297902E-16
  2.60558794E-02 -3.94162135E-02 -3.32326440E-01  3.82462685E-01  5.27513398E-01
 -6.50974023E-01 -3.26103012E-01  3.74986609E-01  6.62707328E-01 -8.04609624E-01
 -1.79804738E-01  2.07138499E-01 -1.32812757E-01  1.51132060E-01 -4.07970399E-01
  4.81256200E-01  2.48410730E-01 -2.85399031E-01 -5.72896854E-01  7.01202441E-01
  2.53661824E-01 -2.89701582E-01  1.62244002E-01 -1.80196801E-01  1.40396802E-15
 -1.46146262E-15  1.21166002E-15 -1.28878100E-15 -1.26119909E-01  1.04032758E-01
 -3.31581911E-01  3.57731266E-01  4.26193938E-01 -5.69420882E-01 -2.79880391E-01
  2.94980242E-01  2.19214877E-01 -1.99173916E-01  5.08788427E-01 -5.51659172E-01
 -6.36175780E-01  8.47820342E-01  3.61430791E-01 -3.72339541E-01 -4.58698019E-01
  5.03379004E-01  4.10021075E-01 -5.59632056E-01 -1.24439739E-01  9.26216233E-02
 -2.02504107E-01  1.87944204E-01 -2.18163075E-15  2.16685278E-15 -6.73962205E-16
  7.65406830E-16 -5.29936135E-01  7.36154384E-01  3.60343383E-01 -3.76257886E-01
  2.79206035E-01 -2.75360862E-01  3.41156222E-01 -3.52589455E-01  1.00537211E-04
 -2.16038269E-02 -1.29266090E-01  1.36767410E-01  1.36074368E-01 -1.88620300E-01
 -1.48871063E-01  1.60735148E-01 -9.26859709E-01  9.93503593E-01 -3.49731322E-01
  2.78237834E-01  1.62488464E-01 -3.69133486E-01  1.26600026E-01 -3.21500184E-01