                  Welcome to Q-Chem
     A Quantum Leap Into The Future Of Chemistry


 Q-Chem 4.3, Q-Chem, Inc., Pleasanton, CA (2015)

 Y. Shao,  Z. Gan,  E. Epifanovsky,  A. T. B. Gilbert,  M. Wormit,  
 J. Kussmann,  A. W. Lange,  A. Behn,  J. Deng,  X. Feng,  D. Ghosh,  
 M. Goldey,  P. R. Horn,  L. D. Jacobson,  I. Kaliman,  R. Z. Khaliullin,  
 T. Kus,  A. Landau,  J. Liu,  E. I. Proynov,  Y. M. Rhee,  R. M. Richard,  
 M. A. Rohrdanz,  R. P. Steele,  E. J. Sundstrom,  H. L. Woodcock III,  
 P. M. Zimmerman,  D. Zuev,  B. Albrecht,  E. Alguire,  B. Austin,  
 S. A. Baeppler,  G. J. O. Beran,  Y. A. Bernard,  E. Berquist,  
 K. Brandhorst,  K. B. Bravaya,  S. T. Brown,  D. Casanova,  C.-M. Chang,  
 Y. Chen,  S. H. Chien,  K. D. Closser,  D. L. Crittenden,  M. Diedenhofen,  
 R. A. DiStasio Jr.,  H. Do,  A. D. Dutoi,  R. G. Edgar,  P.-T. Fang,  
 S. Fatehi,  Q. Feng,  L. Fusti-Molnar,  A. Ghysels,  
 A. Golubeva-Zadorozhnaya,  J. Gomes,  A. Gunina,  M. W. D. Hanson-Heine,  
 P. H. P. Harbach,  A. W. Hauser,  E. G. Hohenstein,  Z. C. Holden,  K. Hui,  
 T.-C. Jagau,  H. Ji,  B. Kaduk,  K. Khistyaev,  Jaehoon Kim,  Jihan Kim,  
 R. A. King,  P. Klunzinger,  D. Kosenkov,  T. Kowalczyk,  C. M. Krauter,  
 K. U. Lao,  A. Laurent,  K. V. Lawler,  S. Lehtola,  S. V. Levchenko,  
 C. Y. Lin,  Y.-S. Lin,  F. Liu,  E. Livshits,  R. C. Lochan,  A. Luenser,  
 P. Manohar,  S. F. Manzer,  S.-P. Mao,  N. Mardirossian,  A. V. Marenich,  
 L. A. Martinez-Martinez,  S. A. Maurer,  N. J. Mayhall,  K. Nanda,  
 C. M. Oana,  R. Olivares-Amaya,  D. P. O'Neill,  J. A. Parkhill,  
 T. M. Perrine,  R. Peverati,  P. A. Pieniazek,  F. Plasser,  A. Prociuk,  
 D. R. Rehn,  E. Rosta,  N. J. Russ,  N. Sergueev,  S. M. Sharada,  
 S. Sharma,  D. W. Small,  A. Sodt,  T. Stauch,  T. Stein,  D. Stuck,  
 Y.-C. Su,  A. J. W. Thom,  T. Tsuchimochi,  L. Vogt,  O. Vydrov,  T. Wang,  
 M. A. Watson,  J. Wenzel,  A. White,  C. F. Williams,  V. Vanovschi,  
 S. Yeganeh,  S. R. Yost,  Z.-Q. You,  I. Y. Zhang,  X. Zhang,  Y. Zhao,  
 B. R. Brooks,  G. K. L. Chan,  D. M. Chipman,  C. J. Cramer,  
 W. A. Goddard III,  M. S. Gordon,  W. J. Hehre,  A. Klamt,  
 H. F. Schaefer III,  M. W. Schmidt,  C. D. Sherrill,  D. G. Truhlar,  
 A. Warshel,  X. Xu,  A. Aspuru-Guzik,  R. Baer,  A. T. Bell,  N. A. Besley,  
 J.-D. Chai,  A. Dreuw,  B. D. Dunietz,  T. R. Furlani,  S. R. Gwaltney,  
 C.-P. Hsu,  Y. Jung,  J. Kong,  D. S. Lambrecht,  W. Liang,  C. Ochsenfeld,  
 V. A. Rassolov,  L. V. Slipchenko,  J. E. Subotnik,  T. Van Voorhis,  
 J. M. Herbert,  A. I. Krylov,  P. M. W. Gill,  M. Head-Gordon

 Contributors to earlier versions of Q-Chem not listed above: 
 R. D. Adamson,  J. Baker,  E. F. C. Byrd,  A. K. Chakraborty,  C.-L. Cheng,  
 H. Dachsel,  R. J. Doerksen,  G. Hawkins,  A. Heyden,  S. Hirata,  
 G. Kedziora,  F. J. Keil,  C. Kelley,  P. P. Korambath,  W. Kurlancheek,  
 A. M. Lee,  M. S. Lee,  D. Liotard,  I. Lotan,  P. E. Maslen,  N. Nair,  
 D. Neuhauser,  R. Olson,  B. Peters,  J. Ritchie,  N. E. Schultz,  
 N. Shenvi,  A. C. Simmonett,  K. S. Thanthiriwatte,  Q. Wu,  W. Zhang

 Please cite Q-Chem as follows:
 Y. Shao et al., Mol. Phys. 113, 184-215 (2015)
 DOI: 10.1080/00268976.2014.952696

 Q-Chem 4.3.0 for Intel X86 EM64T Linux

 Parts of Q-Chem use Armadillo 5.200.1 (Boston Tea Smuggler).
 http://arma.sourceforge.net/

 Q-Chem begins on Mon Mar 20 16:11:06 2017  


Host: 0

     Scratch files written to /home/nmayhall/scratch_qchem/12//
 Dec1416 |home|nmayhall|qcSoftware|qchem|qchem.svn-casman|libmdc|qstr_RNUM -1
 Using version located at /home/nmayhall/qcSoftware/qchem/qchem.svn-casman/bin/qchem


Total Memory Limit in MB = 2000
Mega-Array Size in MB = 62

Checking the input file for inconsistencies... 	...done.

 Q-Chem warning in module /home/nmayhall/qcSoftware/qchem/qchem.svn-casman/forms1/BasisType.C, line 1452:

 You are not using the predefined 5D/6D in this basis set.

Finally everything over in PARseQInput

--------------------------------------------------------------
User input:
--------------------------------------------------------------
$rem
	exchange 		hf
	unrestricted		1
	basis			6-31g*	
	aux_basis		rimp2-vdz
	scf_guess		core	
	scf_convergence		8
	purecart		1111

	symmetry		0
	sym_ignore		1

	!correlation		sf-cas
	!cas_n_spin_flip		1
	!cas_local		1
	gui			2
$end

$development
	1sf_heis_projection	1
$end

$molecule
0 13
H         -0.73854       -0.54065        0.08576
H         -2.31340       -1.01748       -0.67017
H         -2.09582        0.65549       -0.01146
H         -2.21044       -0.75437        1.11995
H	1.47674	4.27203	0.09828
H	0.1685	4.86022	1.20546
H	0.18287	3.1348	0.65668
H	-0.21686	4.45528	-0.51743
H          3.48850       -0.87553       -0.06084
H          2.29649        0.48578       -0.00191
H          1.93960       -1.06676        0.85992
H          1.91588       -1.00965       -0.95022
He	10	10	10	
He	-10	10	10	
$end


--------------------------------------------------------------
 ----------------------------------------------------------------
             Standard Nuclear Orientation (Angstroms)
    I     Atom           X                Y                Z
 ----------------------------------------------------------------
    1      H      -0.7385400000    -0.5406500000     0.0857600000
    2      H      -2.3134000000    -1.0174800000    -0.6701700000
    3      H      -2.0958200000     0.6554900000    -0.0114600000
    4      H      -2.2104400000    -0.7543700000     1.1199500000
    5      H       1.4767400000     4.2720300000     0.0982800000
    6      H       0.1685000000     4.8602200000     1.2054600000
    7      H       0.1828700000     3.1348000000     0.6566800000
    8      H      -0.2168600000     4.4552800000    -0.5174300000
    9      H       3.4885000000    -0.8755300000    -0.0608400000
   10      H       2.2964900000     0.4857800000    -0.0019100000
   11      H       1.9396000000    -1.0667600000     0.8599200000
   12      H       1.9158800000    -1.0096500000    -0.9502200000
   13      He     10.0000000000    10.0000000000    10.0000000000
   14      He    -10.0000000000    10.0000000000    10.0000000000
 ----------------------------------------------------------------
 Nuclear Repulsion Energy =    12.1703455398 hartrees
 There are       14 alpha and        2 beta electrons
 Requested basis set is 6-31G(d)
 There are 28 shells and 28 basis functions

Total QAlloc Memory Limit   2000 MB
Mega-Array Size        61 MB
MEM_STATIC part        62 MB

finished with qalloc call

                       Distance Matrix (Angstroms)
             H (  1)   H (  2)   H (  3)   H (  4)   H (  5)   H (  6)
   H (  2)  1.810796
   H (  3)  1.811743  1.811096
   H (  4)  1.811550  1.812280  1.811334
   H (  5)  5.298067  6.552449  5.084741  6.316946
   H (  6)  5.589798  6.650201  4.928265  6.098384  1.811990
   H (  7)  3.831955  5.023278  3.433048  4.590010  1.810857  1.810646
   H (  8)  5.059180  5.862586  4.269063  5.813418  1.811342  1.811306
   H (  9)  4.242818  5.835536  5.790604  5.821242  5.529003  6.747203
   H ( 10)  3.205098  4.894635  4.395598  4.807178  3.875270  5.012166
   H ( 11)  2.836997  4.520134  4.473261  4.169896  5.412672  6.195586
   H ( 12)  2.887761  4.238549  4.443838  4.623558  5.402623  6.492740
   He( 13) 18.019814 19.668686 18.271783 18.536629 14.265331 14.156965
   He( 14) 17.180573 17.155792 15.812187 15.974636 16.203989 14.393042
             H (  7)   H (  8)   H (  9)   H ( 10)   H ( 11)   H ( 12)
   H (  8)  1.811625
   H (  9)  5.246406  6.508126
   H ( 10)  3.452309  4.726481  1.810394
   H ( 11)  4.558565  6.086077  1.812032  1.811216
   H ( 12)  4.770945  5.882291  1.811662  1.811206  1.811196
   He( 13) 15.192256 15.676239 16.183241 15.808310 16.461600 17.506362
   He( 14) 15.431119 15.397080 20.035900 18.486813 18.669984 19.573143
             He( 13)
   He( 14) 20.000000


 Q-Chem warning in module /home/nmayhall/qcSoftware/qchem/qchem.svn-casman/forms1/BasisType.C, line 1375:

 SAD: How to set up polarization functions for non-Pople basis?

 Requested basis set is rimp2-VDZ
 There are 82 shells and 186 basis functions
 Job number = 2, Threshold = 1.00E-11
Integral type ranges set in mkLRange.C for JobNum: 2  <1-7|1-7>
Symmetry turned off temporarily
 Using the largest function pair in Schwarz integrals
Total number of integrals generated =             999
Symmetry turned back on
 A cutoff of  1.0D-11 yielded    273 shell pairs
 There are       273 function pairs
 Job number = 11, Threshold = 1.00E-11
Integral type ranges set in mkLRange.C for JobNum: 11  <1-1|8-8>

 -------------------------------------------------------
 OpenMP Integral Computing Module                       
 Release: version 1.0, May 2013, Q-Chem Inc. Pittsburgh 
 -------------------------------------------------------
 Integral Job Info:
 Integral job number is                      11
 Integral operator is                         1
 short-range coefficients                     0
 long-range coefficients              100000000
 Omega coefficients                           0
 if combine SR and LR in K                    0
 Integral screening is                        0
 Integral computing path is                   2
 max size of driver memory is            800000
 size of driver memory is                 11780
 size of scratch memory is               800000
 max col of scratch BK array                289
 max len of scratch array in speh3            1
 max len of scratch index in speh4            2
 max int batch size is                      520
 min int batch size is                       52
 fixed nKL is                               520
 max L of basis functions is                  0
 order of int derivative is                   0
 number of shells is                         28
 number of basis is                          28
 number of cartesian basis is                28
 number of contracted shell pairs           273
 number of primitive shell pairs            761
 maxK2 (contraction) of shell pair            9
 max number of K2 of shell pair               1
 max number of CS2 of shell pair            136
 max number of PS2 of shell pair            408
 mem total for path MDJ                    6648
 -------------------------------------------------------
 Smallest overlap matrix eigenvalue = 2.12E-01
 Multipole matrices computed through 2nd order

  Scale SEOQF with 1.000000e-02/1.000000e-02/1.000000e-02

 Standard Electronic Orientation quadrupole field applied
 Nucleus-field energy     =     0.0000000006 hartrees
GuessMan:  IGuess = 1
 Guess MOs from core Hamiltonian diagonalization
scfman initvdwdat 
 An unrestricted Hartree-Fock SCF calculation will be
 performed using Pulay DIIS extrapolation
 SCF converges when DIIS error is below 1.0E-08
Finding J and K together
 Job number = 22, Threshold = 1.00E-11
Integral type ranges set in mkLRange.C for JobNum: 22  <1-1|1-1>
Storing 4861.32% of integrals
Total number of integrals generated =           32718
 MakeJK  time:  CPU       0.01 s  wall       0.01 s
Fock build time:  0.01 s (CPU) 0.01 s (wall)
DIIS Errors:  Max 3.23E-01 RMS 2.76E-02

Current DIIS subspace size = 1
REM_GRID_RESTART_DIIS = 0

 ---------------------------------------
  Cycle       Energy         DIIS Error
 ---------------------------------------
    1      -9.5280275641      2.76E-02  00000
Finding J and K together
 Job number = 22, Threshold = 1.00E-11
Integral type ranges set in mkLRange.C for JobNum: 22  <1-1|1-1>
Storing 4861.32% of integrals
Reusing in-core integrals buffer for job 22
 MakeJK  time:  CPU       0.00 s  wall       0.00 s
Fock build time:  0.00 s (CPU) 0.00 s (wall)
DIIS Errors:  Max 2.54E-01 RMS 1.90E-02

Current DIIS subspace size = 2
REM_GRID_RESTART_DIIS = 0

    2     -11.3749339452      1.90E-02  00000
Finding J and K together
 Job number = 22, Threshold = 1.00E-11
Integral type ranges set in mkLRange.C for JobNum: 22  <1-1|1-1>
Storing 4861.32% of integrals
Reusing in-core integrals buffer for job 22
 MakeJK  time:  CPU       0.00 s  wall       0.00 s
Fock build time:  0.00 s (CPU) 0.00 s (wall)
DIIS Errors:  Max 1.11E-01 RMS 8.53E-03

Current DIIS subspace size = 3
REM_GRID_RESTART_DIIS = 0

    3     -11.4387640422      8.53E-03  00000
Finding J and K together
 Job number = 22, Threshold = 1.00E-11
Integral type ranges set in mkLRange.C for JobNum: 22  <1-1|1-1>
Storing 4861.32% of integrals
Reusing in-core integrals buffer for job 22
 MakeJK  time:  CPU       0.00 s  wall       0.00 s
Fock build time:  0.00 s (CPU) 0.00 s (wall)
DIIS Errors:  Max 8.70E-03 RMS 8.13E-04

Current DIIS subspace size = 4
REM_GRID_RESTART_DIIS = 0

    4     -11.4693502043      8.13E-04  00000
Finding J and K together
 Job number = 22, Threshold = 1.00E-11
Integral type ranges set in mkLRange.C for JobNum: 22  <1-1|1-1>
Storing 4861.32% of integrals
Reusing in-core integrals buffer for job 22
 MakeJK  time:  CPU       0.00 s  wall       0.00 s
Fock build time:  0.00 s (CPU) 0.00 s (wall)
DIIS Errors:  Max 1.41E-04 RMS 1.06E-05

Current DIIS subspace size = 5
REM_GRID_RESTART_DIIS = 0

    5     -11.4719089321      1.06E-05  00000
Finding J and K together
 Job number = 22, Threshold = 1.00E-11
Integral type ranges set in mkLRange.C for JobNum: 22  <1-1|1-1>
Storing 4861.32% of integrals
Reusing in-core integrals buffer for job 22
 MakeJK  time:  CPU       0.00 s  wall       0.00 s
Fock build time:  0.00 s (CPU) 0.00 s (wall)
DIIS Errors:  Max 1.33E-05 RMS 9.73E-07

Current DIIS subspace size = 6
REM_GRID_RESTART_DIIS = 0

    6     -11.4720125999      9.73E-07  00000
Finding J and K together
 Job number = 22, Threshold = 1.00E-11
Integral type ranges set in mkLRange.C for JobNum: 22  <1-1|1-1>
Storing 4861.32% of integrals
Reusing in-core integrals buffer for job 22
 MakeJK  time:  CPU       0.00 s  wall       0.00 s
Fock build time:  0.00 s (CPU) 0.00 s (wall)
DIIS Errors:  Max 4.31E-07 RMS 3.45E-08

Current DIIS subspace size = 7
REM_GRID_RESTART_DIIS = 0

    7     -11.4720282722      3.45E-08  00000
Finding J and K together
 Job number = 22, Threshold = 1.00E-11
Integral type ranges set in mkLRange.C for JobNum: 22  <1-1|1-1>
Storing 4861.32% of integrals
Reusing in-core integrals buffer for job 22
 MakeJK  time:  CPU       0.00 s  wall       0.00 s
Fock build time:  0.00 s (CPU) 0.00 s (wall)
DIIS Errors:  Max 2.48E-07 RMS 1.87E-08

Current DIIS subspace size = 8
REM_GRID_RESTART_DIIS = 0

    8     -11.4720313587      1.87E-08  00000
Finding J and K together
 Job number = 22, Threshold = 1.00E-11
Integral type ranges set in mkLRange.C for JobNum: 22  <1-1|1-1>
Storing 4861.32% of integrals
Reusing in-core integrals buffer for job 22
 MakeJK  time:  CPU       0.00 s  wall       0.00 s
Fock build time:  0.00 s (CPU) 0.00 s (wall)
DIIS Errors:  Max 3.37E-09 RMS 2.58E-10

Current DIIS subspace size = 9
REM_GRID_RESTART_DIIS = 0

    9     -11.4720317209      2.58E-10  00000 Convergence criterion met
 ---------------------------------------
 <S^2> = 42.0000
 SCF time:  CPU 0.04 s  wall 0.04 s
 SCF   energy in the final basis set = -11.4720317209
 Total energy in the final basis set = -11.4720317209
Symmetry turned off temporarily
 Analysis of SCF Wavefunction

 --------------------------------------------------------------

                    Orbital Energies (a.u.)
 --------------------------------------------------------------

 Alpha MOs
 -- Occupied --
 -0.914  -0.914  -0.708  -0.702  -0.698  -0.469  -0.462  -0.456
 -0.455  -0.454  -0.452  -0.451  -0.446  -0.439
 -- Virtual --
  0.839   0.860   0.900   0.906   0.917   0.928   0.941   0.969
  0.982   1.060   1.096   1.150   1.400   1.400

 Beta MOs
 -- Occupied --
 -0.914  -0.914
 -- Virtual --
 -0.048  -0.039  -0.033   0.140   0.146   0.159   0.160   0.163
  0.166   0.170   0.180   0.193   1.059   1.074   1.107   1.112
  1.120   1.130   1.141   1.166   1.179   1.263   1.297   1.346
  1.400   1.400
 --------------------------------------------------------------

          Ground-State Mulliken Net Atomic Charges

     Atom                 Charge (a.u.)    Spin (a.u.)
  --------------------------------------------------------
      1 H                     0.000109       0.999891
      2 H                     0.000003       0.999997
      3 H                    -0.000003       1.000003
      4 H                     0.000003       0.999997
      5 H                    -0.000003       1.000003
      6 H                     0.000000       1.000000
      7 H                     0.000006       0.999994
      8 H                    -0.000004       1.000004
      9 H                     0.000064       0.999936
     10 H                    -0.000045       1.000045
     11 H                    -0.000063       1.000063
     12 H                    -0.000068       1.000068
     13 He                    0.000000      -0.000000
     14 He                    0.000000      -0.000000
  --------------------------------------------------------
  Sum of atomic charges =    -0.000000
  Sum of spin   charges =    12.000000

 -----------------------------------------------------------------
                    Cartesian Multipole Moments
 -----------------------------------------------------------------
    Charge (ESU x 10^10)
                -0.0000
    Dipole Moment (Debye)
         X      -0.0005      Y      -0.0005      Z       0.0001
       Tot       0.0007
    Quadrupole Moments (Debye-Ang)
        XX     -19.5978     XY       0.0139     YY     -19.5167
        XZ       0.0001     YZ      -0.0010     ZZ     -19.5147
    Octopole Moments (Debye-Ang^2)
       XXX     -19.5105    XXY     -38.6488    XYY      -4.8335
       YYY    -118.4941    XXZ     -22.9262    XYZ      -0.0082
       YYZ     -23.7849    XZZ      -4.1148    YZZ     -38.5522
       ZZZ     -70.7116
    Hexadecapole Moments (Debye-Ang^3)
      XXXX   -1642.3714   XXXY     -17.2201   XXYY    -598.2721
      XYYY     -14.2620   YYYY   -1928.3010   XXXZ       3.4154
      XXYZ    -215.5274   XYYZ       0.0259   YYYZ    -657.3390
      XXZZ    -491.0363   XYZZ      -4.5423   YYZZ    -548.4166
      XZZZ       4.4595   YZZZ    -651.3460   ZZZZ   -1318.2316
 -----------------------------------------------------------------
 JobOver = TRUE
Archival summary:
1\1\sinatra\SP\HF\6-31G*\e212()\nmayhall\MonMar2016:11:062017MonMar2016:11:062017\0\\#,HF,6-31G*,\\0,13\H\H,1,1.8108\H,2,1.8111,1,60.0291\H,3,1.81133,2,60.0389,1,70.5227,0\H,1,2.837,2,152.386,3,178.05,0\H,5,1.8112,1,73.0863,2,-68.5028,0\H,6,1.81121,5,60.0005,1,-92.9521,0\H,7,1.81039,6,60.0315,5,-70.571,0\H,3,3.43305,2,144.849,1,-28.0344,0\H,9,1.81065,3,137.895,2,-172.724,0\H,9,1.81086,3,150.202,2,-57.0221,0\H,10,1.81131,9,60.0237,3,78.3687,0\He,10,14.157,9,121.92,3,-142.544,0\He,10,14.393,9,122.079,3,-31.1618,0\\HF=-11.4720317\\@

 Total job time:  0.11s(wall), 0.11s(cpu) 
 Mon Mar 20 16:11:06 2017

        *************************************************************
        *                                                           *
        *  Thank you very much for using Q-Chem.  Have a nice day.  *
        *                                                           *
        *************************************************************


*** MISSION COMPLETED -- STARFLEET OUT ***

 
User input: 2 of 2 
 
                  Welcome to Q-Chem
     A Quantum Leap Into The Future Of Chemistry


 Q-Chem 4.3, Q-Chem, Inc., Pleasanton, CA (2015)

 Y. Shao,  Z. Gan,  E. Epifanovsky,  A. T. B. Gilbert,  M. Wormit,  
 J. Kussmann,  A. W. Lange,  A. Behn,  J. Deng,  X. Feng,  D. Ghosh,  
 M. Goldey,  P. R. Horn,  L. D. Jacobson,  I. Kaliman,  R. Z. Khaliullin,  
 T. Kus,  A. Landau,  J. Liu,  E. I. Proynov,  Y. M. Rhee,  R. M. Richard,  
 M. A. Rohrdanz,  R. P. Steele,  E. J. Sundstrom,  H. L. Woodcock III,  
 P. M. Zimmerman,  D. Zuev,  B. Albrecht,  E. Alguire,  B. Austin,  
 S. A. Baeppler,  G. J. O. Beran,  Y. A. Bernard,  E. Berquist,  
 K. Brandhorst,  K. B. Bravaya,  S. T. Brown,  D. Casanova,  C.-M. Chang,  
 Y. Chen,  S. H. Chien,  K. D. Closser,  D. L. Crittenden,  M. Diedenhofen,  
 R. A. DiStasio Jr.,  H. Do,  A. D. Dutoi,  R. G. Edgar,  P.-T. Fang,  
 S. Fatehi,  Q. Feng,  L. Fusti-Molnar,  A. Ghysels,  
 A. Golubeva-Zadorozhnaya,  J. Gomes,  A. Gunina,  M. W. D. Hanson-Heine,  
 P. H. P. Harbach,  A. W. Hauser,  E. G. Hohenstein,  Z. C. Holden,  K. Hui,  
 T.-C. Jagau,  H. Ji,  B. Kaduk,  K. Khistyaev,  Jaehoon Kim,  Jihan Kim,  
 R. A. King,  P. Klunzinger,  D. Kosenkov,  T. Kowalczyk,  C. M. Krauter,  
 K. U. Lao,  A. Laurent,  K. V. Lawler,  S. Lehtola,  S. V. Levchenko,  
 C. Y. Lin,  Y.-S. Lin,  F. Liu,  E. Livshits,  R. C. Lochan,  A. Luenser,  
 P. Manohar,  S. F. Manzer,  S.-P. Mao,  N. Mardirossian,  A. V. Marenich,  
 L. A. Martinez-Martinez,  S. A. Maurer,  N. J. Mayhall,  K. Nanda,  
 C. M. Oana,  R. Olivares-Amaya,  D. P. O'Neill,  J. A. Parkhill,  
 T. M. Perrine,  R. Peverati,  P. A. Pieniazek,  F. Plasser,  A. Prociuk,  
 D. R. Rehn,  E. Rosta,  N. J. Russ,  N. Sergueev,  S. M. Sharada,  
 S. Sharma,  D. W. Small,  A. Sodt,  T. Stauch,  T. Stein,  D. Stuck,  
 Y.-C. Su,  A. J. W. Thom,  T. Tsuchimochi,  L. Vogt,  O. Vydrov,  T. Wang,  
 M. A. Watson,  J. Wenzel,  A. White,  C. F. Williams,  V. Vanovschi,  
 S. Yeganeh,  S. R. Yost,  Z.-Q. You,  I. Y. Zhang,  X. Zhang,  Y. Zhao,  
 B. R. Brooks,  G. K. L. Chan,  D. M. Chipman,  C. J. Cramer,  
 W. A. Goddard III,  M. S. Gordon,  W. J. Hehre,  A. Klamt,  
 H. F. Schaefer III,  M. W. Schmidt,  C. D. Sherrill,  D. G. Truhlar,  
 A. Warshel,  X. Xu,  A. Aspuru-Guzik,  R. Baer,  A. T. Bell,  N. A. Besley,  
 J.-D. Chai,  A. Dreuw,  B. D. Dunietz,  T. R. Furlani,  S. R. Gwaltney,  
 C.-P. Hsu,  Y. Jung,  J. Kong,  D. S. Lambrecht,  W. Liang,  C. Ochsenfeld,  
 V. A. Rassolov,  L. V. Slipchenko,  J. E. Subotnik,  T. Van Voorhis,  
 J. M. Herbert,  A. I. Krylov,  P. M. W. Gill,  M. Head-Gordon

 Contributors to earlier versions of Q-Chem not listed above: 
 R. D. Adamson,  J. Baker,  E. F. C. Byrd,  A. K. Chakraborty,  C.-L. Cheng,  
 H. Dachsel,  R. J. Doerksen,  G. Hawkins,  A. Heyden,  S. Hirata,  
 G. Kedziora,  F. J. Keil,  C. Kelley,  P. P. Korambath,  W. Kurlancheek,  
 A. M. Lee,  M. S. Lee,  D. Liotard,  I. Lotan,  P. E. Maslen,  N. Nair,  
 D. Neuhauser,  R. Olson,  B. Peters,  J. Ritchie,  N. E. Schultz,  
 N. Shenvi,  A. C. Simmonett,  K. S. Thanthiriwatte,  Q. Wu,  W. Zhang

 Please cite Q-Chem as follows:
 Y. Shao et al., Mol. Phys. 113, 184-215 (2015)
 DOI: 10.1080/00268976.2014.952696

 Q-Chem 4.3.0 for Intel X86 EM64T Linux

 Parts of Q-Chem use Armadillo 5.200.1 (Boston Tea Smuggler).
 http://arma.sourceforge.net/

 Q-Chem begins on Mon Mar 20 16:11:06 2017  


Host: 0

     Scratch files written to /home/nmayhall/scratch_qchem/12//
 Dec1416 |home|nmayhall|qcSoftware|qchem|qchem.svn-casman|libmdc|qstr_RNUM -1
 Using version located at /home/nmayhall/qcSoftware/qchem/qchem.svn-casman/bin/qchem

 Turning off symmetry for CASMAN

Total Memory Limit in MB = 2000
Mega-Array Size in MB = 62

Checking the input file for inconsistencies... 	...done.

 Q-Chem warning in module /home/nmayhall/qcSoftware/qchem/qchem.svn-casman/forms1/BasisType.C, line 1452:

 You are not using the predefined 5D/6D in this basis set.

Finally everything over in PARseQInput

--------------------------------------------------------------
User input:
--------------------------------------------------------------
$rem
	exchange 		hf
	unrestricted		0
	basis			6-31g*	
	aux_basis		rimp2-vdz
	scf_guess		read	
	scf_convergence		8
	purecart		1111

	symmetry		0
	sym_ignore		1

	correlation		sf-cas
	cas_n_spin_flip		1
	cas_local		1
	gui			2
$end

$development
	1sf_heis_projection	1
	scf_corresponding_orbs	1
$end

$molecule
read
$end

--------------------------------------------------------------
 ----------------------------------------------------------------
             Standard Nuclear Orientation (Angstroms)
    I     Atom           X                Y                Z
 ----------------------------------------------------------------
    1      H      -0.7385400000    -0.5406500000     0.0857600000
    2      H      -2.3134000000    -1.0174800000    -0.6701700000
    3      H      -2.0958200000     0.6554900000    -0.0114600000
    4      H      -2.2104400000    -0.7543700000     1.1199500000
    5      H       1.4767400000     4.2720300000     0.0982800000
    6      H       0.1685000000     4.8602200000     1.2054600000
    7      H       0.1828700000     3.1348000000     0.6566800000
    8      H      -0.2168600000     4.4552800000    -0.5174300000
    9      H       3.4885000000    -0.8755300000    -0.0608400000
   10      H       2.2964900000     0.4857800000    -0.0019100000
   11      H       1.9396000000    -1.0667600000     0.8599200000
   12      H       1.9158800000    -1.0096500000    -0.9502200000
   13      He     10.0000000000    10.0000000000    10.0000000000
   14      He    -10.0000000000    10.0000000000    10.0000000000
 ----------------------------------------------------------------
 Nuclear Repulsion Energy =    12.1703455398 hartrees
 There are       14 alpha and        2 beta electrons
 Requested basis set is 6-31G(d)
 There are 28 shells and 28 basis functions

Total QAlloc Memory Limit   2000 MB
Mega-Array Size        61 MB
MEM_STATIC part        62 MB

finished with qalloc call

                       Distance Matrix (Angstroms)
             H (  1)   H (  2)   H (  3)   H (  4)   H (  5)   H (  6)
   H (  2)  1.810796
   H (  3)  1.811743  1.811096
   H (  4)  1.811550  1.812280  1.811334
   H (  5)  5.298067  6.552449  5.084741  6.316946
   H (  6)  5.589798  6.650201  4.928265  6.098384  1.811990
   H (  7)  3.831955  5.023278  3.433048  4.590010  1.810857  1.810646
   H (  8)  5.059180  5.862586  4.269063  5.813418  1.811342  1.811306
   H (  9)  4.242818  5.835536  5.790604  5.821242  5.529003  6.747203
   H ( 10)  3.205098  4.894635  4.395598  4.807178  3.875270  5.012166
   H ( 11)  2.836997  4.520134  4.473261  4.169896  5.412672  6.195586
   H ( 12)  2.887761  4.238549  4.443838  4.623558  5.402623  6.492740
   He( 13) 18.019814 19.668686 18.271783 18.536629 14.265331 14.156965
   He( 14) 17.180573 17.155792 15.812187 15.974636 16.203989 14.393042
             H (  7)   H (  8)   H (  9)   H ( 10)   H ( 11)   H ( 12)
   H (  8)  1.811625
   H (  9)  5.246406  6.508126
   H ( 10)  3.452309  4.726481  1.810394
   H ( 11)  4.558565  6.086077  1.812032  1.811216
   H ( 12)  4.770945  5.882291  1.811662  1.811206  1.811196
   He( 13) 15.192256 15.676239 16.183241 15.808310 16.461600 17.506362
   He( 14) 15.431119 15.397080 20.035900 18.486813 18.669984 19.573143
             He( 13)
   He( 14) 20.000000


 Q-Chem warning in module /home/nmayhall/qcSoftware/qchem/qchem.svn-casman/forms1/BasisType.C, line 1375:

 SAD: How to set up polarization functions for non-Pople basis?

 Requested basis set is rimp2-VDZ
 There are 82 shells and 186 basis functions
 Job number = 2, Threshold = 1.00E-12
Integral type ranges set in mkLRange.C for JobNum: 2  <1-7|1-7>
Symmetry turned off temporarily
 Using the largest function pair in Schwarz integrals
Total number of integrals generated =            1003
Symmetry turned back on
 A cutoff of  1.0D-12 yielded    277 shell pairs
 There are       277 function pairs
 Job number = 11, Threshold = 1.00E-12
Integral type ranges set in mkLRange.C for JobNum: 11  <1-1|8-8>

 -------------------------------------------------------
 OpenMP Integral Computing Module                       
 Release: version 1.0, May 2013, Q-Chem Inc. Pittsburgh 
 -------------------------------------------------------
 Integral Job Info:
 Integral job number is                      11
 Integral operator is                         1
 short-range coefficients                     0
 long-range coefficients              100000000
 Omega coefficients                           0
 if combine SR and LR in K                    0
 Integral screening is                        0
 Integral computing path is                   2
 max size of driver memory is            800000
 size of driver memory is                 11780
 size of scratch memory is               800000
 max col of scratch BK array                289
 max len of scratch array in speh3            1
 max len of scratch index in speh4            2
 max int batch size is                      520
 min int batch size is                       52
 fixed nKL is                               520
 max L of basis functions is                  0
 order of int derivative is                   0
 number of shells is                         28
 number of basis is                          28
 number of cartesian basis is                28
 number of contracted shell pairs           277
 number of primitive shell pairs            781
 maxK2 (contraction) of shell pair            9
 max number of K2 of shell pair               1
 max number of CS2 of shell pair            142
 max number of PS2 of shell pair            426
 mem total for path MDJ                    6720
 -------------------------------------------------------
 Smallest overlap matrix eigenvalue = 2.12E-01
 Multipole matrices computed through 2nd order

  Scale SEOQF with 1.000000e-02/1.000000e-02/1.000000e-02

 Standard Electronic Orientation quadrupole field applied
 Nucleus-field energy     =     0.0000000006 hartrees
GuessMan:  IGuess = 1000
 Guess MOs from SCF MO coefficient file
 Reading MOs from coefficient file
 Reading MOs from coefficient file
scfman initvdwdat 
 A restricted Hartree-Fock SCF calculation will be
 performed using Geometric Direct Minimization
 SCF converges when RMS gradient is below 1.0E-08
Finding J and K together
 Job number = 22, Threshold = 1.00E-12
Integral type ranges set in mkLRange.C for JobNum: 22  <1-1|1-1>
Storing 4722.18% of integrals
Total number of integrals generated =           34219
 MakeJK  time:  CPU       0.01 s  wall       0.01 s
Fock build time:  0.01 s (CPU) 0.01 s (wall)
 ---------------------------------------
  Cycle       Energy        RMS Gradient
 ---------------------------------------
    1     -11.4720317490      9.95E-05  00000 Normal BFGS step
Finding J and K together
 Job number = 22, Threshold = 1.00E-12
Integral type ranges set in mkLRange.C for JobNum: 22  <1-1|1-1>
Storing 4722.18% of integrals
Reusing in-core integrals buffer for job 22
 MakeJK  time:  CPU       0.00 s  wall       0.00 s
Fock build time:  0.00 s (CPU) 0.00 s (wall)
    2     -11.4720317543      4.12E-10  00000 Convergence criterion met
 ---------------------------------------
 SCF time:  CPU 0.02 s  wall 0.02 s
 Obtaining Corresponding orbitals

 Forming corresponding orbitals block-by-block...
 Size of singly occupied alpha block:      12 : 12.0000
 Size of doubly occupied block:             2 : 2.0000
 Size of singly occupied beta block:        0 : 0.0000
 Size of unoccupied block:                 14 : 14.0000
 Use scf_boys =     0 (Canonical)
                    1 (Boys)
                    2 (Pipek-Mezey)
                    3 (ER)
 Build new fock matrix
 I'm here
 I'm here
 Calling AOints...
 Job number = 22, Threshold = 1.00E-12
Integral type ranges set in mkLRange.C for JobNum: 22  <1-1|1-1>
Storing 4722.18% of integrals
 done.
 E(SCF): disk=    -11.472031754256 current=    -11.472031754256 diff=  -1.243e-14
 SCF   energy in the final basis set = -11.4720317543
 Total energy in the final basis set = -11.4720317543
 DevKeyword Parameters: 
 1sf_heis_projection                   1
scf_corresponding_orbs                   1


 ========================================================
                       In SF-CAS-CI                      
 ========================================================
 DevKeyword Parameters: 
 1sf_heis_projection                   1
scf_corresponding_orbs                   1

 Forming orbitals for SF-CAS calculation.
NBas   : 28
NOrb   : 28
NDOcc  : 2
NSOcc  : 12
NDVir  : 14
ISpin  : 0
e_hf: -11.47203175
 Using OPT1 Orbitals: Favg | Favg | Favg 
 A/B mix in Doubly occupied F  : 0.50000000
 A/B mix in Singly occupied F  : 0.50000000
 A/B mix in Doubly unoccupied F: 0.50000000
 Max of F(beta)ds      : 3.782e-16
 Max of F(alpha)sv     : 8.841e-12
 Max of F(average)dv   : 2.371e-11
 Orbital Energies  (D):
    1    -0.91413175    -0.91413175
    2    -0.91412596    -0.91412596
 Orbital Energies  (S):
    3    -0.36491941    -0.36491941
    4    -0.35778119    -0.35778119
    5    -0.35289103    -0.35289103
    6    -0.14395298    -0.14395298
    7    -0.13740440    -0.13740440
    8    -0.12936671    -0.12936671
    9    -0.12847679    -0.12847679
   10    -0.12676742    -0.12676742
   11    -0.12468408    -0.12468408
   12    -0.12262963    -0.12262963
   13    -0.11668243    -0.11668243
   14    -0.10717107    -0.10717107
 Orbital Energies  (V):
   15     0.92837235     0.92837235
   16     0.94690916     0.94690916
   17     0.98437939     0.98437939
   18     0.98964847     0.98964847
   19     1.00006274     1.00006274
   20     1.01078754     1.01078754
   21     1.02330065     1.02330065
   22     1.05059718     1.05059718
   23     1.06441974     1.06441974
   24     1.14824706     1.14824706
   25     1.18381585     1.18381585
   26     1.23604567     1.23604567
   27     1.39985421     1.39985421
   28     1.39986001     1.39986001
 tr(Pa)     :   14.0000000000
 tr(Pb)     :    2.0000000000
 E(core) with new P : -37.43643803
 E(HF) with new P   : -11.47203175
 Difference in Ehf  :  -2.3093e-14

 Number of spin flips: 1
 Use cas_local =    0 (Canonical)
                    1 (Boys)
                    2 (Pipek-Mezey)
                    3 (ER)
 Using Boys orbitals in casman
 
 
 
Calling Get_Boys in C++
 
 
 
Orbital 8 Variance 7.51575015
Orbital 2 Variance 13.89826520
Orbital 12 Variance 20.55260720
Orbital 4 Variance 21.76646891
Orbital 9 Variance 22.10472947
Orbital 7 Variance 22.77643955
Orbital 3 Variance 23.43349615
Orbital 1 Variance 25.91663718
Orbital 11 Variance 26.46091763
Orbital 5 Variance 27.17094286
Orbital 6 Variance 30.23531177
Orbital 10 Variance 33.26023546
          ***** NUMBER OF SADDLE POINTS SO FAR = 0 ******

Initially in boys_jacobi.C before sweep, get_boys, boysval = 209.855536
In BOYS_JACOBI SWEEPS for get_boys, ending in round     5  because max_diff = 9.678354e-07


---> BEGIN 2nd Der Calculation    ******  
Guessing MaxD =  20 and MinD = 10
in get_boys.C: p = 0 guessthresh  52.5839393619 numsofar 18 MinD 10
in get_boys.C: p = 1 guessthresh  52.0839393619 numsofar 18 MinD 10
in get_boys.C: p = 2 guessthresh  51.8339393619 numsofar 18 MinD 10
in get_boys.C: p = 3 guessthresh  51.7089393619 numsofar 4 MinD 10
DimInGuess 4 mineval  51.5839393619 guessthresh  51.7089393619
round 0 sizeofsub 4 eval0 5.096208e+01 diffeval0 1.000500e+05 length_qM 1.115171e+00 thresh 1.000000e-08
round 1 sizeofsub 5 eval0 5.036327e+01 diffeval0 5.988052e-01 length_qM 1.060310e-01 thresh 1.000000e-08
round 2 sizeofsub 6 eval0 5.036270e+01 diffeval0 5.697404e-04 length_qM 2.087391e-01 thresh 1.000000e-08
round 3 sizeofsub 7 eval0 5.036168e+01 diffeval0 1.019986e-03 length_qM 1.525271e-02 thresh 1.000000e-08
round 4 sizeofsub 8 eval0 5.036167e+01 diffeval0 1.115324e-05 length_qM 3.162265e-02 thresh 1.000000e-08
round 5 sizeofsub 9 eval0 5.036165e+01 diffeval0 2.450888e-05 length_qM 6.643459e-03 thresh 1.000000e-08
round 6 sizeofsub 10 eval0 5.036165e+01 diffeval0 2.060268e-06 length_qM 1.216425e-03 thresh 1.000000e-08
round 7 sizeofsub 11 eval0 5.036165e+01 diffeval0 5.426052e-09 length_qM 8.821607e-06 thresh 1.000000e-08
round 8 sizeofsub 12 eval0 5.036165e+01 diffeval0 3.462475e-11 length_qM 1.521761e-05 thresh 1.000000e-08
round 9 sizeofsub 13 eval0 5.036165e+01 diffeval0 4.426681e-11 length_qM 2.143378e-05 thresh 1.000000e-08
round 10 sizeofsub 14 eval0 5.036165e+01 diffeval0 2.664535e-12 length_qM 4.110253e-07 thresh 1.000000e-08
Converged to smallest eigenvalue: eval0 5.036165e+01

Success!!! No Negative Eigenvalues: Ending Get Boys in C++ ...Bye Bye
Orbital 12 Variance 2.76557200
Orbital 9 Variance 2.77104677
Orbital 4 Variance 2.77262924
Orbital 3 Variance 2.77549584
Orbital 2 Variance 2.77615398
Orbital 5 Variance 2.77617015
Orbital 7 Variance 2.77621521
Orbital 1 Variance 2.77638644
Orbital 10 Variance 2.77648107
Orbital 8 Variance 2.77650657
Orbital 11 Variance 2.77719108
Orbital 6 Variance 2.77787038
EXECUTING ORTHO_FUNC DESTRUCTOR

 Dimensions of orbital sub-spaces:    
 Number Hole Orbs:Alpha:Beta:       2    2    2
 Number Active Orbs:Alpha:Beta:    12   11    1
 Number Part Orbs:Alpha:Beta:      14    0    0

 Dimensions in SF-RAS-hp calculation: 
 Number of active space determinants:  144
 Number of hole space determinants:    1608
 Number of part space determinants:    11256
 Number of hole-part determinants:     130060
 Total 1x space:                       13008
 Total singles space:                  143068
 REM_MEM_TOT: 2000
 Memory Used: 0
 Memory Left: 2000
 Memory Need: 2
 Constructing 1e MO integrals
 Form (P|Q)**(-1/2)...
 Job number = 66, Threshold = 1.00E-12
Integral type ranges set in mkLRange.C for JobNum: 66  <2-7|2-7>
Symmetry turned off temporarily
Storing 4722.18% of integrals
Total number of integrals generated =           19965
Symmetry turned back on
 Forming (pq|P)...
 Forming Active-Active (aa|P) integrals...

 Entering first-index batching code with I1Strt =    3 batch size =   12
 Job number = 65, Threshold = 1.00E-12
Integral type ranges set in mkLRange.C for JobNum: 65  <1-1|2-7>
Symmetry turned off temporarily
Storing 4722.18% of integrals
Total number of integrals generated =           54846
Symmetry turned back on
 Forming Active-Active B integrals...
 Contracting B matrices to form 2e integrals. 
 Forming 2J-K over o,v with exact integrals
 Calling AOints... Job number = 22, Threshold = 1.00E-12
Integral type ranges set in mkLRange.C for JobNum: 22  <1-1|1-1>
Storing 4722.18% of integrals
Total number of integrals generated =           34219
 done.

 ROHF energy found on disk: 
 E(ROHF):         -11.47203175
-11.47203175
 First 10 Diagonal elements of H: 
 11111111111_ | 1___________        -11.07934506
 11111111111_ | _1__________        -10.91185446
 11111111111_ | __1_________        -10.93185770
 11111111111_ | ___1________        -10.99259042
 11111111111_ | ____1_______        -11.07899786
 11111111111_ | _____1______        -10.97402780
 11111111111_ | ______1_____        -11.07916700
 11111111111_ | _______1____        -10.90178574
 11111111111_ | ________1___        -10.99561869
 11111111111_ | _________1__        -10.90714383
 Fill S2_CAS Matrix...  done.
 Fill H_CAS Matrix...  done.

 Diagonalizing H_CAS 
 Entering cast_sfcas_to_sfcis
 ===================================================================
 Theory           State:          Energy (au)       (eV)       <S2>
 -------------------------------------------------------------------
 SF-CAS               1:       -11.5301676032     0.0000    30.0000
 SF-CAS               2:       -11.5287465136     0.0387    30.0000
 SF-CAS               3:       -11.5286702609     0.0407    30.0000
 SF-CAS               4:       -11.5284146813     0.0477    30.0000
 SF-CAS               5:       -11.5283598907     0.0492    30.0000
 SF-CAS               6:       -11.5283085973     0.0506    30.0000
 SF-CAS               7:       -11.5282596522     0.0519    30.0000
 SF-CAS               8:       -11.5282045977     0.0534    30.0000
 SF-CAS               9:       -11.5281672614     0.0544    30.0000
 SF-CAS              10:       -11.4731919116     1.5504    30.0000
 SF-CAS              11:       -11.4722318056     1.5765    30.0000
 SF-CAS              12:       -11.4720317543     1.5820    42.0000
 SF-CAS              13:       -11.2094588410     8.7270    30.0000
 SF-CAS              14:       -11.2037021538     8.8837    30.0000
 SF-CAS              15:       -11.2033970882     8.8920    30.0000
 SF-CAS              16:       -11.2032942256     8.8948    30.0000
 SF-CAS              17:       -11.2024222815     8.9185    30.0000
 SF-CAS              18:       -11.2020967255     8.9273    30.0000
 SF-CAS              19:       -11.2019197828     8.9322    30.0000
 SF-CAS              20:       -11.2017083715     8.9379    30.0000
 SF-CAS              21:       -11.2016144313     8.9405    30.0000
 SF-CAS              22:       -11.1825338419     9.4597    30.0000
 SF-CAS              23:       -11.1725301182     9.7319    30.0000
 SF-CAS              24:       -11.1676035650     9.8660    30.0000
 SF-CAS              25:       -11.1599168940    10.0751    30.0000
 SF-CAS              26:       -11.1562274919    10.1755    30.0000
 SF-CAS              27:       -11.1534037803    10.2524    30.0000
 SF-CAS              28:       -11.1503066822    10.3366    30.0000
 SF-CAS              29:       -11.1447426391    10.4880    30.0000
 SF-CAS              30:       -11.1437288368    10.5156    30.0000
 SF-CAS              31:       -11.1423484739    10.5532    30.0000
 SF-CAS              32:       -11.1406670803    10.5990    30.0000
 SF-CAS              33:       -11.1389221564    10.6464    30.0000
 SF-CAS              34:       -11.1343432211    10.7710    30.0000
 SF-CAS              35:       -11.1296273515    10.8994    30.0000
 SF-CAS              36:       -11.1241177166    11.0493    30.0000
 SF-CAS              37:       -11.1238110630    11.0576    30.0000
 SF-CAS              38:       -11.1185288542    11.2014    30.0000
 SF-CAS              39:       -11.1159953097    11.2703    30.0000
 SF-CAS              40:       -11.0877049049    12.0401    30.0000
 SF-CAS              41:       -11.0862258145    12.0804    30.0000
 SF-CAS              42:       -11.0861359616    12.0828    30.0000
 SF-CAS              43:       -11.0859536054    12.0878    30.0000
 SF-CAS              44:       -11.0857411587    12.0936    30.0000
 SF-CAS              45:       -11.0857236003    12.0941    30.0000
 SF-CAS              46:       -11.0833952944    12.1574    30.0000
 SF-CAS              47:       -11.0832701157    12.1608    30.0000
 SF-CAS              48:       -11.0818848424    12.1985    30.0000
 SF-CAS              49:       -11.0818035478    12.2007    30.0000
 SF-CAS              50:       -11.0817125917    12.2032    30.0000
 SF-CAS              51:       -11.0815870975    12.2066    30.0000
 SF-CAS              52:       -11.0813924773    12.2119    30.0000
 SF-CAS              53:       -11.0797825407    12.2557    30.0000
 SF-CAS              54:       -11.0795136938    12.2630    30.0000
 SF-CAS              55:       -11.0793891726    12.2664    30.0000
 SF-CAS              56:       -11.0789138430    12.2794    30.0000
 SF-CAS              57:       -11.0772315970    12.3251    30.0000
 SF-CAS              58:       -10.9865927735    14.7916    30.0000
 SF-CAS              59:       -10.9790364697    14.9972    30.0000
 SF-CAS              60:       -10.9779628332    15.0264    30.0000
 SF-CAS              61:       -10.9700315067    15.2422    30.0000
 SF-CAS              62:       -10.9626708967    15.4425    30.0000
 SF-CAS              63:       -10.9603726877    15.5051    30.0000
 SF-CAS              64:       -10.9572344976    15.5905    30.0000
 SF-CAS              65:       -10.9531844550    15.7007    30.0000
 SF-CAS              66:       -10.9502124933    15.7815    30.0000
 SF-CAS              67:       -10.9475896607    15.8529    30.0000
 SF-CAS              68:       -10.9446637859    15.9325    30.0000
 SF-CAS              69:       -10.9437308213    15.9579    30.0000
 SF-CAS              70:       -10.9417651312    16.0114    30.0000
 SF-CAS              71:       -10.9389820039    16.0871    30.0000
 SF-CAS              72:       -10.9383432657    16.1045    30.0000
 SF-CAS              73:       -10.9381150579    16.1107    30.0000
 SF-CAS              74:       -10.9376226990    16.1241    30.0000
 SF-CAS              75:       -10.9375684737    16.1256    30.0000
 SF-CAS              76:       -10.9343425336    16.2134    30.0000
 SF-CAS              77:       -10.9335437572    16.2351    30.0000
 SF-CAS              78:       -10.9331873511    16.2448    30.0000
 SF-CAS              79:       -10.9326198453    16.2603    30.0000
 SF-CAS              80:       -10.9310946851    16.3018    30.0000
 SF-CAS              81:       -10.9300295004    16.3307    30.0000
 SF-CAS              82:       -10.9296682790    16.3406    30.0000
 SF-CAS              83:       -10.9266289617    16.4233    30.0000
 SF-CAS              84:       -10.9245848565    16.4789    30.0000
 SF-CAS              85:       -10.9224217425    16.5378    30.0000
 SF-CAS              86:       -10.9221008510    16.5465    30.0000
 SF-CAS              87:       -10.9216103708    16.5598    30.0000
 SF-CAS              88:       -10.9209714774    16.5772    30.0000
 SF-CAS              89:       -10.9198992062    16.6064    30.0000
 SF-CAS              90:       -10.9195123305    16.6169    30.0000
 SF-CAS              91:       -10.9185160391    16.6440    30.0000
 SF-CAS              92:       -10.9177109180    16.6660    30.0000
 SF-CAS              93:       -10.9159998876    16.7125    30.0000
 SF-CAS              94:       -10.9159117379    16.7149    30.0000
 SF-CAS              95:       -10.9153871094    16.7292    30.0000
 SF-CAS              96:       -10.9141147576    16.7638    30.0000
 SF-CAS              97:       -10.9129346599    16.7959    30.0000
 SF-CAS              98:       -10.9115741089    16.8329    30.0000
 SF-CAS              99:       -10.9114130124    16.8373    30.0000
 SF-CAS             100:       -10.9099773462    16.8764    30.0000
 SF-CAS             101:       -10.9098363510    16.8802    30.0000
 SF-CAS             102:       -10.9066164043    16.9679    30.0000
 SF-CAS             103:       -10.9061334261    16.9810    30.0000
 SF-CAS             104:       -10.9055185404    16.9977    30.0000
 SF-CAS             105:       -10.9029849836    17.0667    30.0000
 SF-CAS             106:       -10.9023152162    17.0849    30.0000
 SF-CAS             107:       -10.9021245182    17.0901    30.0000
 SF-CAS             108:       -10.8992737928    17.1677    30.0000
 SF-CAS             109:       -10.8990507898    17.1737    30.0000
 SF-CAS             110:       -10.8973590030    17.2198    30.0000
 SF-CAS             111:       -10.8966986912    17.2377    30.0000
 SF-CAS             112:       -10.8934139329    17.3271    30.0000
 SF-CAS             113:       -10.8907309583    17.4001    30.0000
 SF-CAS             114:       -10.8886659452    17.4563    30.0000
 SF-CAS             115:       -10.8884467328    17.4623    30.0000
 SF-CAS             116:       -10.8883011178    17.4662    30.0000
 SF-CAS             117:       -10.8879339043    17.4762    30.0000
 SF-CAS             118:       -10.8865688740    17.5134    30.0000
 SF-CAS             119:       -10.8861246375    17.5255    30.0000
 SF-CAS             120:       -10.8846413916    17.5658    30.0000
 SF-CAS             121:       -10.8836185293    17.5937    30.0000
 SF-CAS             122:       -10.8830213046    17.6099    30.0000
 SF-CAS             123:       -10.8816397078    17.6475    30.0000
 SF-CAS             124:       -10.8791532736    17.7152    30.0000
 SF-CAS             125:       -10.8784073981    17.7355    30.0000
 SF-CAS             126:       -10.8763972924    17.7902    30.0000
 SF-CAS             127:       -10.7141286539    22.2058    30.0000
 SF-CAS             128:       -10.6996394993    22.6000    30.0000
 SF-CAS             129:       -10.6993055716    22.6091    30.0000
 SF-CAS             130:       -10.6924953474    22.7944    30.0000
 SF-CAS             131:       -10.6906676122    22.8442    30.0000
 SF-CAS             132:       -10.6841853045    23.0206    30.0000
 SF-CAS             133:       -10.6824366011    23.0682    30.0000
 SF-CAS             134:       -10.6786446693    23.1713    30.0000
 SF-CAS             135:       -10.6768314907    23.2207    30.0000
 SF-CAS             136:       -10.6726067161    23.3356    30.0000
 SF-CAS             137:       -10.6708759413    23.3827    30.0000
 SF-CAS             138:       -10.6697530545    23.4133    30.0000
 SF-CAS             139:       -10.6668899978    23.4912    30.0000
 SF-CAS             140:       -10.6645615881    23.5546    30.0000
 SF-CAS             141:       -10.6588755702    23.7093    30.0000
 SF-CAS             142:       -10.6588001362    23.7113    30.0000
 SF-CAS             143:       -10.6547690605    23.8210    30.0000
 SF-CAS             144:       -10.6420441485    24.1673    30.0000
 ===================================================================

              Active Space Coefficients > 0.20
 -------------------------------------------------------------------
 State  1                       Configuration         Coeff.   <S^2>
 -------------------------------------------------------------------
                  11111111111_ | ___________1       0.654808  31.000
                  11111111_111 | ________1___       0.292767  31.000
                  1111_1111111 | ____1_______       0.205828  31.000
                  111_11111111 | ___1________      -0.208492  31.000
                  11_111111111 | __1_________      -0.362746  31.000
                  _11111111111 | 1___________       0.222245  31.000
 -------------------------------------------------------------------
 State  2                       Configuration         Coeff.   <S^2>
 -------------------------------------------------------------------
                  11111111111_ | ___________1       0.323137  31.000
                  1111111111_1 | __________1_       0.290347  31.000
                  11111_111111 | _____1______       0.314575  31.000
                  11_111111111 | __1_________       0.640385  31.000
 -------------------------------------------------------------------
 State  3                       Configuration         Coeff.   <S^2>
 -------------------------------------------------------------------
                  11111111111_ | ___________1       0.226952  31.000
                  1111111111_1 | __________1_      -0.613706  31.000
                  1111111_1111 | _______1____      -0.298243  31.000
                  1111_1111111 | ____1_______       0.351693  31.000
                  11_111111111 | __1_________       0.258148  31.000
 -------------------------------------------------------------------
 State  4                       Configuration         Coeff.   <S^2>
 -------------------------------------------------------------------
                  111111_11111 | ______1_____       0.253112  31.000
                  11111_111111 | _____1______      -0.430326  31.000
                  1111_1111111 | ____1_______      -0.539520  31.000
                  111_11111111 | ___1________       0.210984  31.000
                  _11111111111 | 1___________       0.418371  31.000
 -------------------------------------------------------------------
 State  5                       Configuration         Coeff.   <S^2>
 -------------------------------------------------------------------
                  11111111_111 | ________1___      -0.620460  31.000
                  111_11111111 | ___1________      -0.665181  31.000
 -------------------------------------------------------------------
 State  6                       Configuration         Coeff.   <S^2>
 -------------------------------------------------------------------
                  1111111111_1 | __________1_      -0.266771  31.000
                  111111111_11 | _________1__      -0.367738  31.000
                  11111111_111 | ________1___       0.229560  31.000
                  1111111_1111 | _______1____      -0.252439  31.000
                  11111_111111 | _____1______       0.447370  31.000
                  1111_1111111 | ____1_______      -0.347702  31.000
                  1_1111111111 | _1__________       0.352272  31.000
 -------------------------------------------------------------------
 State  7                       Configuration         Coeff.   <S^2>
 -------------------------------------------------------------------
                  111111111_11 | _________1__       0.552874  31.000
                  1111111_1111 | _______1____      -0.223072  31.000
                  11111_111111 | _____1______       0.327264  31.000
                  1_1111111111 | _1__________      -0.513692  31.000
 -------------------------------------------------------------------
 State  8                       Configuration         Coeff.   <S^2>
 -------------------------------------------------------------------
                  1111111111_1 | __________1_       0.216582  31.000
                  111111111_11 | _________1__       0.381910  31.000
                  1111111_1111 | _______1____      -0.627388  31.000
                  1_1111111111 | _1__________       0.461573  31.000
 -------------------------------------------------------------------
 State  9                       Configuration         Coeff.   <S^2>
 -------------------------------------------------------------------
                  111111_11111 | ______1_____       0.697146  31.000
                  _11111111111 | 1___________      -0.580479  31.000
 -------------------------------------------------------------------
 State  10                      Configuration         Coeff.   <S^2>
 -------------------------------------------------------------------
                  11111111111_ | ___________1       0.337116  31.000
                  11111111_111 | ________1___       0.344826  31.000
                  111111_11111 | ______1_____      -0.359177  31.000
                  11111_111111 | _____1______      -0.355080  31.000
                  1111_1111111 | ____1_______      -0.357907  31.000
                  111_11111111 | ___1________      -0.347169  31.000
                  11_111111111 | __1_________       0.361439  31.000
                  _11111111111 | 1___________      -0.359185  31.000
 -------------------------------------------------------------------
 State  11                      Configuration         Coeff.   <S^2>
 -------------------------------------------------------------------
                  11111111111_ | ___________1      -0.203200  31.000
                  1111111111_1 | __________1_      -0.404863  31.000
                  111111111_11 | _________1__       0.408892  31.000
                  11111111_111 | ________1___       0.205656  31.000
                  1111111_1111 | _______1____       0.409402  31.000
                  111111_11111 | ______1_____       0.203687  31.000
                  11111_111111 | _____1______      -0.203425  31.000
                  1111_1111111 | ____1_______       0.201409  31.000
                  111_11111111 | ___1________      -0.205681  31.000
                  11_111111111 | __1_________       0.205707  31.000
                  1_1111111111 | _1__________       0.409309  31.000
                  _11111111111 | 1___________       0.203703  31.000
 -------------------------------------------------------------------
 State  12                      Configuration         Coeff.   <S^2>
 -------------------------------------------------------------------
                  11111111111_ | ___________1       0.288675  31.000
                  1111111111_1 | __________1_      -0.288675  31.000
                  111111111_11 | _________1__       0.288675  31.000
                  11111111_111 | ________1___      -0.288675  31.000
                  1111111_1111 | _______1____       0.288675  31.000
                  111111_11111 | ______1_____      -0.288675  31.000
                  11111_111111 | _____1______       0.288675  31.000
                  1111_1111111 | ____1_______      -0.288675  31.000
                  111_11111111 | ___1________       0.288675  31.000
                  11_111111111 | __1_________      -0.288675  31.000
                  1_1111111111 | _1__________       0.288675  31.000
                  _11111111111 | 1___________      -0.288675  31.000
 -------------------------------------------------------------------
 State  13                      Configuration         Coeff.   <S^2>
 -------------------------------------------------------------------
                  11111111111_ | 1___________       0.302969  30.000
                  11111111111_ | ___1________       0.248675  30.000
                  11111111111_ | ____1_______       0.300807  30.000
                  11111111111_ | _____1______      -0.228684  30.000
                  11111111111_ | ______1_____       0.301801  30.000
                  11111111111_ | ________1___       0.249672  30.000
                  11_111111111 | ___1________       0.208815  30.000
                  11_111111111 | _____1______      -0.247125  30.000
 -------------------------------------------------------------------
 State  14                      Configuration         Coeff.   <S^2>
 -------------------------------------------------------------------
                  11111111111_ | 1___________      -0.261837  30.000
                  11111111111_ | ____1_______      -0.254440  30.000
                  11111111111_ | ______1_____      -0.262713  30.000
                  11_111111111 | __1_________      -0.227931  31.000
                  11_111111111 | ___1________       0.351130  30.000
                  11_111111111 | _____1______      -0.336607  30.000
                  11_111111111 | ________1___       0.345280  30.000
 -------------------------------------------------------------------
 State  15                      Configuration         Coeff.   <S^2>
 -------------------------------------------------------------------
                  111111_11111 | 1___________       0.342093  30.000
                  111111_11111 | ___________1       0.298160  30.000
                  1111_1111111 | 1___________      -0.383530  30.000
                  1111_1111111 | ____1_______       0.266058  31.000
                  1111_1111111 | ______1_____      -0.342715  30.000
                  1111_1111111 | ___________1      -0.468727  30.000
                  _11111111111 | ______1_____       0.259691  30.000
 -------------------------------------------------------------------
 State  16                      Configuration         Coeff.   <S^2>
 -------------------------------------------------------------------
                  111111_11111 | 1___________      -0.212398  30.000
                  111111_11111 | ____1_______      -0.374345  30.000
                  111111_11111 | ______1_____       0.212705  31.000
                  111111_11111 | ___________1      -0.371699  30.000
                  _11111111111 | 1___________      -0.255943  31.000
                  _11111111111 | ____1_______       0.400618  30.000
                  _11111111111 | ______1_____       0.306434  30.000
                  _11111111111 | ___________1       0.444179  30.000
 -------------------------------------------------------------------
 State  17                      Configuration         Coeff.   <S^2>
 -------------------------------------------------------------------
                  11111111_111 | __1_________      -0.340721  30.000
                  11111111_111 | ___1________      -0.343359  30.000
                  11111_111111 | __1_________       0.391799  30.000
                  11111_111111 | ___1________       0.402502  30.000
                  11111_111111 | _____1______       0.246949  31.000
                  11111_111111 | ________1___       0.309932  30.000
 -------------------------------------------------------------------
 State  18                      Configuration         Coeff.   <S^2>
 -------------------------------------------------------------------
                  11111111_111 | __1_________       0.306465  30.000
                  11111111_111 | _____1______      -0.344124  30.000
                  11111_111111 | ________1___       0.215533  30.000
                  111_11111111 | __1_________       0.423823  30.000
                  111_11111111 | ___1________      -0.255949  31.000
                  111_11111111 | _____1______      -0.394948  30.000
                  111_11111111 | ________1___       0.334524  30.000
 -------------------------------------------------------------------
 State  19                      Configuration         Coeff.   <S^2>
 -------------------------------------------------------------------
                  1111111111_1 | _1__________       0.409357  30.000
                  1111111111_1 | _______1____       0.399390  30.000
                  1111111111_1 | _________1__       0.376517  30.000
                  1111111111_1 | __________1_      -0.262407  31.000
                  111111111_11 | _1__________       0.235990  30.000
                  111111111_11 | _______1____       0.246423  30.000
                  1111111_1111 | _________1__       0.201278  30.000
 -------------------------------------------------------------------
 State  20                      Configuration         Coeff.   <S^2>
 -------------------------------------------------------------------
                  111111111_11 | _1__________       0.355904  30.000
                  111111111_11 | _______1____       0.377331  30.000
                  111111111_11 | _________1__      -0.266319  31.000
                  111111111_11 | __________1_       0.466157  30.000
                  1111111_1111 | _1__________      -0.305357  30.000
                  1111111_1111 | __________1_      -0.200935  30.000
                  1_1111111111 | _______1____      -0.347773  30.000
                  1_1111111111 | __________1_      -0.264520  30.000
 -------------------------------------------------------------------
 State  21                      Configuration         Coeff.   <S^2>
 -------------------------------------------------------------------
                  1111111_1111 | _1__________      -0.288682  30.000
                  1111111_1111 | _______1____       0.247637  31.000
                  1111111_1111 | _________1__      -0.402663  30.000
                  1111111_1111 | __________1_      -0.425544  30.000
                  1_1111111111 | _1__________      -0.231650  31.000
                  1_1111111111 | _______1____       0.252648  30.000
                  1_1111111111 | _________1__       0.403494  30.000
                  1_1111111111 | __________1_       0.388219  30.000
 -------------------------------------------------------------------
 State  22                      Configuration         Coeff.   <S^2>
 -------------------------------------------------------------------
                  11111111111_ | __1_________       0.331241  30.000
                  11111111111_ | ___1________       0.410710  30.000
                  11111111111_ | _____1______      -0.383122  30.000
                  11111111111_ | ________1___       0.417234  30.000
 -------------------------------------------------------------------
 State  23                      Configuration         Coeff.   <S^2>
 -------------------------------------------------------------------
                  11111111_111 | 1___________      -0.326789  30.000
                  11111111_111 | ____1_______      -0.328917  30.000
                  11111111_111 | ______1_____      -0.340014  30.000
                  11111111_111 | ___________1      -0.469018  30.000
                  111_11111111 | 1___________      -0.300821  30.000
                  111_11111111 | ____1_______      -0.293916  30.000
                  111_11111111 | ______1_____      -0.288687  30.000
                  111_11111111 | ___________1      -0.411043  30.000
 -------------------------------------------------------------------
 State  24                      Configuration         Coeff.   <S^2>
 -------------------------------------------------------------------
                  1111111111_1 | ____1_______       0.207990  30.000
                  1111111111_1 | ___________1       0.209657  30.000
                  11111_111111 | 1___________      -0.297498  30.000
                  11111_111111 | ____1_______      -0.318596  30.000
                  11111_111111 | ______1_____      -0.299927  30.000
                  11111_111111 | ___________1      -0.404013  30.000
                  111_11111111 | ___________1      -0.270638  30.000
 -------------------------------------------------------------------
 State  25                      Configuration         Coeff.   <S^2>
 -------------------------------------------------------------------
                  1111111111_1 | 1___________      -0.241000  30.000
                  1111111111_1 | __1_________       0.204335  30.000
                  1111111111_1 | ___1________       0.237108  30.000
                  1111111111_1 | ____1_______      -0.309419  30.000
                  1111111111_1 | _____1______      -0.281874  30.000
                  1111111111_1 | ______1_____      -0.253491  30.000
                  1111111111_1 | ________1___       0.244370  30.000
                  1111111111_1 | ___________1      -0.334026  30.000
 -------------------------------------------------------------------
 State  26                      Configuration         Coeff.   <S^2>
 -------------------------------------------------------------------
                  11111111111_ | __________1_       0.229854  30.000
                  11111_111111 | _1__________       0.253907  30.000
                  11111_111111 | _______1____       0.246167  30.000
                  11111_111111 | _________1__       0.287283  30.000
                  11111_111111 | __________1_       0.307068  30.000
                  1111_1111111 | _1__________       0.257174  30.000
                  1111_1111111 | _______1____       0.236886  30.000
                  1111_1111111 | _________1__       0.234072  30.000
                  1111_1111111 | __________1_       0.301876  30.000
 -------------------------------------------------------------------
 State  27                      Configuration         Coeff.   <S^2>
 -------------------------------------------------------------------
                  11111_111111 | _1__________      -0.294752  30.000
                  11111_111111 | _______1____      -0.285571  30.000
                  11111_111111 | _________1__      -0.333392  30.000
                  11111_111111 | __________1_      -0.362876  30.000
                  1111_1111111 | _1__________       0.241179  30.000
                  1111_1111111 | _______1____       0.221856  30.000
                  1111_1111111 | _________1__       0.219899  30.000
                  1111_1111111 | __________1_       0.288833  30.000
 -------------------------------------------------------------------
 State  28                      Configuration         Coeff.   <S^2>
 -------------------------------------------------------------------
                  1111111111_1 | ____1_______      -0.248302  30.000
                  1111111111_1 | _____1______       0.247384  30.000
                  1111111111_1 | ______1_____      -0.206274  30.000
                  1111_1111111 | __1_________      -0.206224  30.000
                  1111_1111111 | ___1________      -0.241349  30.000
                  1111_1111111 | _____1______       0.238392  30.000
                  1111_1111111 | ________1___      -0.240361  30.000
 -------------------------------------------------------------------
 State  29                      Configuration         Coeff.   <S^2>
 -------------------------------------------------------------------
                  111111_11111 | __1_________      -0.305272  30.000
                  111111_11111 | ___1________      -0.354919  30.000
                  111111_11111 | _____1______       0.347075  30.000
                  111111_11111 | ________1___      -0.374795  30.000
                  _11111111111 | __1_________       0.265075  30.000
                  _11111111111 | ___1________       0.321390  30.000
                  _11111111111 | _____1______      -0.293123  30.000
                  _11111111111 | ________1___       0.313041  30.000
 -------------------------------------------------------------------
 State  30                      Configuration         Coeff.   <S^2>
 -------------------------------------------------------------------
                  11111111111_ | _1__________       0.203879  30.000
                  11111111111_ | _________1__       0.201073  30.000
                  11111111111_ | __________1_       0.240391  30.000
                  111111_11111 | __________1_       0.208974  30.000
                  1111_1111111 | __________1_      -0.206312  30.000
 -------------------------------------------------------------------
 State  31                      Configuration         Coeff.   <S^2>
 -------------------------------------------------------------------
                  11_111111111 | 1___________      -0.281564  30.000
                  11_111111111 | ____1_______      -0.288880  30.000
                  11_111111111 | ______1_____      -0.282098  30.000
                  11_111111111 | ___________1      -0.335855  30.000
 -------------------------------------------------------------------
 State  32                      Configuration         Coeff.   <S^2>
 -------------------------------------------------------------------
                  111111111_11 | __1_________      -0.218901  30.000
                  111111111_11 | ___1________      -0.229417  30.000
                  111111111_11 | _____1______       0.277603  30.000
                  111111111_11 | ________1___      -0.229698  30.000
                  11_111111111 | 1___________       0.208936  30.000
                  11_111111111 | ____1_______       0.206169  30.000
                  11_111111111 | ______1_____       0.208719  30.000
                  11_111111111 | ___________1       0.245676  30.000
 -------------------------------------------------------------------
 State  33                      Configuration         Coeff.   <S^2>
 -------------------------------------------------------------------
                  1111111111_1 | ___1________      -0.200578  30.000
                  1111111111_1 | _____1______       0.254400  30.000
                  1111111111_1 | ________1___      -0.205170  30.000
                  111111111_11 | ___________1      -0.214267  30.000
                  1_1111111111 | __1_________      -0.211048  30.000
                  1_1111111111 | ___1________      -0.233002  30.000
                  1_1111111111 | _____1______       0.263741  30.000
                  1_1111111111 | ________1___      -0.231598  30.000
 -------------------------------------------------------------------
 State  34                      Configuration         Coeff.   <S^2>
 -------------------------------------------------------------------
                  1111111_1111 | 1___________       0.252549  30.000
                  1111111_1111 | __1_________      -0.212998  30.000
                  1111111_1111 | ___1________      -0.239666  30.000
                  1111111_1111 | ____1_______       0.294581  30.000
                  1111111_1111 | _____1______       0.265889  30.000
                  1111111_1111 | ______1_____       0.261014  30.000
                  1111111_1111 | ________1___      -0.245059  30.000
                  1111111_1111 | ___________1       0.321202  30.000
                  1_1111111111 | 1___________      -0.252378  30.000
                  1_1111111111 | ____1_______      -0.300710  30.000
                  1_1111111111 | ______1_____      -0.254100  30.000
                  1_1111111111 | ___________1      -0.281899  30.000
 -------------------------------------------------------------------
 State  35                      Configuration         Coeff.   <S^2>
 -------------------------------------------------------------------
                  11111111_111 | _1__________      -0.318411  30.000
                  11111111_111 | _______1____      -0.314580  30.000
                  11111111_111 | _________1__      -0.336907  30.000
                  11111111_111 | __________1_      -0.369558  30.000
                  111_11111111 | _1__________      -0.331549  30.000
                  111_11111111 | _______1____      -0.318756  30.000
                  111_11111111 | _________1__      -0.346799  30.000
                  111_11111111 | __________1_      -0.372917  30.000
 -------------------------------------------------------------------
 State  36                      Configuration         Coeff.   <S^2>
 -------------------------------------------------------------------
                  111111_11111 | _1__________      -0.327721  30.000
                  111111_11111 | _______1____      -0.319396  30.000
                  111111_11111 | _________1__      -0.314715  30.000
                  111111_11111 | __________1_      -0.369159  30.000
                  _11111111111 | _1__________       0.342750  30.000
                  _11111111111 | _______1____       0.325668  30.000
                  _11111111111 | _________1__       0.326183  30.000
                  _11111111111 | __________1_       0.373739  30.000
 -------------------------------------------------------------------
 State  37                      Configuration         Coeff.   <S^2>
 -------------------------------------------------------------------
                  111111111_11 | 1___________      -0.306561  30.000
                  111111111_11 | ____1_______      -0.348820  30.000
                  111111111_11 | ______1_____      -0.311329  30.000
                  111111111_11 | ___________1      -0.306620  30.000
                  1_1111111111 | __1_________       0.234871  30.000
                  1_1111111111 | ___1________       0.232318  30.000
                  1_1111111111 | ____1_______       0.210967  30.000
                  1_1111111111 | _____1______      -0.268661  30.000
                  1_1111111111 | ________1___       0.228298  30.000
 -------------------------------------------------------------------
 State  38                      Configuration         Coeff.   <S^2>
 -------------------------------------------------------------------
                  1111111_1111 | 1___________       0.245968  30.000
                  1111111_1111 | __1_________       0.307918  30.000
                  1111111_1111 | ___1________       0.296867  30.000
                  1111111_1111 | ____1_______       0.285098  30.000
                  1111111_1111 | _____1______      -0.345465  30.000
                  1111111_1111 | ______1_____       0.254177  30.000
                  1111111_1111 | ________1___       0.299639  30.000
                  1111111_1111 | ___________1       0.205036  30.000
                  1_1111111111 | __1_________      -0.216886  30.000
                  1_1111111111 | ___1________      -0.220102  30.000
                  1_1111111111 | _____1______       0.247985  30.000
                  1_1111111111 | ________1___      -0.216788  30.000
 -------------------------------------------------------------------
 State  39                      Configuration         Coeff.   <S^2>
 -------------------------------------------------------------------
                  11111111111_ | _1__________       0.221751  30.000
                  11111111111_ | _______1____       0.209427  30.000
                  11111111111_ | _________1__       0.212681  30.000
                  11111111111_ | __________1_       0.265783  30.000
                  11_111111111 | _1__________      -0.325715  30.000
                  11_111111111 | _______1____      -0.320750  30.000
                  11_111111111 | _________1__      -0.352145  30.000
                  11_111111111 | __________1_      -0.364035  30.000
 -------------------------------------------------------------------
 State  40                      Configuration         Coeff.   <S^2>
 -------------------------------------------------------------------
                  11111111_111 | __1_________      -0.201768  30.000
                  11111111_111 | ___1________       0.394362  30.000
                  11111111_111 | _____1______       0.247723  30.000
                  11111_111111 | __1_________       0.343935  30.000
                  11111_111111 | ________1___      -0.207529  30.000
                  111_11111111 | __1_________       0.203226  30.000
                  111_11111111 | _____1______      -0.204252  30.000
                  111_11111111 | ________1___      -0.352744  30.000
                  11_111111111 | ___1________      -0.247889  30.000
                  11_111111111 | _____1______      -0.387413  30.000
 -------------------------------------------------------------------
 State  41                      Configuration         Coeff.   <S^2>
 -------------------------------------------------------------------
                  11111111_111 | __1_________      -0.331587  30.000
                  11111111_111 | _____1______      -0.327677  30.000
                  11111_111111 | ___1________      -0.339869  30.000
                  11111_111111 | ________1___       0.296946  30.000
                  111_11111111 | __1_________      -0.286906  30.000
                  111_11111111 | _____1______      -0.334536  30.000
                  11_111111111 | ___1________       0.328954  30.000
                  11_111111111 | ________1___      -0.336871  30.000
 -------------------------------------------------------------------
 State  42                      Configuration         Coeff.   <S^2>
 -------------------------------------------------------------------
                  1111111111_1 | _1__________      -0.239625  30.000
                  1111111111_1 | _________1__       0.416725  30.000
                  111111111_11 | _______1____       0.225914  30.000
                  111111111_11 | __________1_      -0.384382  30.000
                  1111111_1111 | _1__________      -0.397385  30.000
                  1111111_1111 | _________1__       0.237390  30.000
                  1_1111111111 | _______1____      -0.402112  30.000
                  1_1111111111 | __________1_       0.223850  30.000
 -------------------------------------------------------------------
 State  43                      Configuration         Coeff.   <S^2>
 -------------------------------------------------------------------
                  1111111111_1 | _1__________      -0.346125  30.000
                  1111111111_1 | _______1____       0.398737  30.000
                  111111111_11 | _1__________      -0.383915  30.000
                  111111111_11 | _______1____       0.338903  30.000
                  1111111_1111 | _________1__       0.295186  30.000
                  1111111_1111 | __________1_      -0.332786  30.000
                  1_1111111111 | _________1__      -0.349376  30.000
                  1_1111111111 | __________1_       0.288782  30.000
 -------------------------------------------------------------------
 State  44                      Configuration         Coeff.   <S^2>
 -------------------------------------------------------------------
                  11111111111_ | 1___________       0.349952  30.000
                  11111111111_ | ______1_____      -0.508261  30.000
                  1111_1111111 | 1___________       0.370328  30.000
                  1111_1111111 | ______1_____      -0.312518  30.000
                  _11111111111 | ____1_______       0.304684  30.000
 -------------------------------------------------------------------
 State  45                      Configuration         Coeff.   <S^2>
[...]
   697     3237.39227239    31100.95346654        6.00000000      cm-1
   698     3237.95473291    31101.51592706        6.00000000      cm-1
   699     3241.00086351    31104.56205766       12.00000000      cm-1
   700     3241.72527802    31105.28647217        2.00000000      cm-1
   701     3242.35358445    31105.91477860       12.00000000      cm-1
   702     3242.81223504    31106.37342919        6.00000000      cm-1
   703     3243.21942564    31106.78061979        0.00000000      cm-1
   704     3249.87922570    31113.44041985       12.00000000      cm-1
   705     3249.97448252    31113.53567667        6.00000000      cm-1
   706     3250.57484632    31114.13604047        6.00000000      cm-1
   707     3251.21183985    31114.77303400       20.00000000      cm-1
   708     3251.46364756    31115.02484171       12.00000000      cm-1
   709     3252.25350803    31115.81470218        6.00000000      cm-1
   710     3252.82847363    31116.38966778        6.00000000      cm-1
   711     3253.50309465    31117.06428880        2.00000000      cm-1
   712     3257.54224796    31121.10344211       -0.00000000      cm-1
   713     3258.03869423    31121.59988838        6.00000000      cm-1
   714     3259.12164832    31122.68284247       12.00000000      cm-1
   715     3259.28752781    31122.84872196        6.00000000      cm-1
   716     3259.78352740    31123.34472155        6.00000000      cm-1
   717     3260.67582787    31124.23702202        2.00000000      cm-1
   718     3261.01061659    31124.57181074       20.00000000      cm-1
   719     3262.34925379    31125.91044794       12.00000000      cm-1
   720     3263.43450369    31126.99569784        2.00000000      cm-1
   721     3264.30700731    31127.86820146       12.00000000      cm-1
   722     3265.28746123    31128.84865538       12.00000000      cm-1
   723     3267.21607678    31130.77727093        6.00000000      cm-1
   724     3269.57108066    31133.13227481        6.00000000      cm-1
   725     3273.06405387    31136.62524802       12.00000000      cm-1
   726     3274.49017678    31138.05137093       12.00000000      cm-1
   727     3275.07766677    31138.63886092        6.00000000      cm-1
   728     3276.06412901    31139.62532316       12.00000000      cm-1
   729     3278.54682490    31142.10801905        6.00000000      cm-1
   730     3278.91601669    31142.47721084       12.00000000      cm-1
   731     3279.74216000    31143.30335415       12.00000000      cm-1
   732     3281.26051368    31144.82170783        6.00000000      cm-1
   733     3282.78294226    31146.34413641       20.00000000      cm-1
   734     3283.09340775    31146.65460190        2.00000000      cm-1
   735     3283.69195755    31147.25315170       12.00000000      cm-1
   736     3285.33003706    31148.89123121        0.00000000      cm-1
   737     3290.19759061    31153.75878476       12.00000000      cm-1
   738     3291.43221929    31154.99341344       20.00000000      cm-1
   739     3292.65178714    31156.21298129       12.00000000      cm-1
   740     3292.91191391    31156.47310806       20.00000000      cm-1
   741     3295.63950141    31159.20069556        6.00000000      cm-1
   742     3295.92096558    31159.48215973       12.00000000      cm-1
   743     3297.37979578    31160.94098993       20.00000000      cm-1
   744     3299.05962664    31162.62082079       20.00000000      cm-1
   745     3300.69145841    31164.25265256       20.00000000      cm-1
   746     3300.89158490    31164.45277905        6.00000000      cm-1
   747     3302.17884928    31165.74004343       12.00000000      cm-1
   748     3304.49395266    31168.05514681       20.00000000      cm-1
   749     3305.72813884    31169.28933299       12.00000000      cm-1
   750     3313.07039181    31176.63158596       20.00000000      cm-1
   751     3313.95998449    31177.52117864       12.00000000      cm-1
   752     3314.72353016    31178.28472431        6.00000000      cm-1
   753     3319.15850827    31182.71970242       20.00000000      cm-1
   754     3321.51735313    31185.07854728       20.00000000      cm-1
   755     3341.16219249    31204.72338664       20.00000000      cm-1
   756     3346.66557165    31210.22676580       20.00000000      cm-1
   757     3353.90912320    31217.47031735       20.00000000      cm-1
   758     8802.55032023    36666.11151438        0.00000000      cm-1
   759     8860.09912493    36723.66031908       -0.00000000      cm-1
   760     8866.29585967    36729.85705382        2.00000000      cm-1
   761     8923.84859692    36787.40979107        2.00000000      cm-1
   762     8992.12955293    36855.69074708        6.00000000      cm-1
   763     9049.69021822    36913.25141237        6.00000000      cm-1
   764     9115.05784310    36978.61903725       -0.00000000      cm-1
   765     9122.91495036    36986.47614451        2.00000000      cm-1
   766     9138.60039605    37002.16159020        6.00000000      cm-1
   767     9154.79106010    37018.35225425        0.00000000      cm-1
   768     9161.78119481    37025.34238896        2.00000000      cm-1
   769     9162.05714843    37025.61834258       12.00000000      cm-1
   770     9175.73587842    37039.29707257        6.00000000      cm-1
   771     9176.94008194    37040.50127609       12.00000000      cm-1
   772     9193.20090365    37056.76209780       20.00000000      cm-1
   773     9196.60444820    37060.16564235       12.00000000      cm-1
   774     9214.63376299    37078.19495714       -0.00000000      cm-1
   775     9222.10508774    37085.66628189        2.00000000      cm-1
   776     9224.31215397    37087.87334812       20.00000000      cm-1
   777     9234.51279068    37098.07398483       12.00000000      cm-1
   778     9237.02220998    37100.58340413        6.00000000      cm-1
   779     9259.33446685    37122.89566100       12.00000000      cm-1
   780     9288.96683745    37152.52803160       20.00000000      cm-1
   781     9319.46887271    37183.03006686       -0.00000000      cm-1
   782     9326.99999310    37190.56118725        2.00000000      cm-1
   783     9342.03446220    37205.59565635        6.00000000      cm-1
   784     9364.51725249    37228.07844664       12.00000000      cm-1
   785     9394.36708988    37257.92828403       20.00000000      cm-1
   786     9416.51155293    37280.07274708       20.00000000      cm-1
   787     9474.10058509    37337.66177924       20.00000000      cm-1
   788    14858.23350368    42721.79469783        2.00000000      cm-1
   789    14871.57043179    42735.13162594        6.00000000      cm-1
   790    14891.00806066    42754.56925481       12.00000000      cm-1
   791    14972.80866753    42836.36986168        2.00000000      cm-1
   792    14994.94716181    42858.50835596        2.00000000      cm-1
   793    15006.22288728    42869.78408143        2.00000000      cm-1
   794    15020.58296046    42884.14415461        6.00000000      cm-1
   795    15025.30042322    42888.86161737        2.00000000      cm-1
   796    15027.52519894    42891.08639309        0.00000000      cm-1
   797    15037.60861909    42901.16981324        0.00000000      cm-1
   798    15040.74910753    42904.31030168        2.00000000      cm-1
   799    15049.38453975    42912.94573390        2.00000000      cm-1
   800    15050.68847680    42914.24967095        0.00000000      cm-1
   801    15056.87370203    42920.43489618        6.00000000      cm-1
   802    15058.64281650    42922.20401065        2.00000000      cm-1
   803    15064.24098920    42927.80218335       12.00000000      cm-1
   804    15066.32088444    42929.88207859        2.00000000      cm-1
   805    15071.21927273    42934.78046688        6.00000000      cm-1
   806    15073.40153016    42936.96272431        6.00000000      cm-1
   807    15073.92311926    42937.48431341        0.00000000      cm-1
   808    15074.55028077    42938.11147492        6.00000000      cm-1
   809    15077.39781092    42940.95900507        2.00000000      cm-1
   810    15084.38556640    42947.94676055       12.00000000      cm-1
   811    15089.48726907    42953.04846322        6.00000000      cm-1
   812    15097.47270205    42961.03389620       12.00000000      cm-1
   813    15128.83470687    42992.39590102        2.00000000      cm-1
   814    15130.03039677    42993.59159092       20.00000000      cm-1
   815    15141.68930643    43005.25050058        2.00000000      cm-1
   816    15145.54252468    43009.10371883        6.00000000      cm-1
   817    15152.46354728    43016.02474143        2.00000000      cm-1
   818    15162.48660849    43026.04780264        6.00000000      cm-1
   819    15168.37818201    43031.93937616       12.00000000      cm-1
   820    15170.78235940    43034.34355355       12.00000000      cm-1
   821    15174.55708643    43038.11828058        6.00000000      cm-1
   822    15198.23630185    43061.79749600        6.00000000      cm-1
   823    15198.99328488    43062.55447903        2.00000000      cm-1
   824    15203.30463054    43066.86582469       20.00000000      cm-1
   825    15209.47552195    43073.03671610       12.00000000      cm-1
   826    15211.52139081    43075.08258496        2.00000000      cm-1
   827    15224.27983168    43087.84102583       12.00000000      cm-1
   828    15233.76446064    43097.32565479        6.00000000      cm-1
   829    15238.40641811    43101.96761226        0.00000000      cm-1
   830    15244.16367023    43107.72486438       30.00000000      cm-1
   831    15246.24895536    43109.81014951        2.00000000      cm-1
   832    15259.46466472    43123.02585887        0.00000000      cm-1
   833    15260.05939265    43123.62058680        6.00000000      cm-1
   834    15266.37638612    43129.93758027       12.00000000      cm-1
   835    15267.58829055    43131.14948470        2.00000000      cm-1
   836    15278.83712503    43142.39831918       12.00000000      cm-1
   837    15283.40736547    43146.96855962        6.00000000      cm-1
   838    15293.07030778    43156.63150192       20.00000000      cm-1
   839    15306.68131419    43170.24250834       12.00000000      cm-1
   840    15312.68128822    43176.24248237        0.00000000      cm-1
   841    15314.00217388    43177.56336803        6.00000000      cm-1
   842    15320.21889156    43183.78008571        2.00000000      cm-1
   843    15325.18527693    43188.74647108        6.00000000      cm-1
   844    15334.16336907    43197.72456322        6.00000000      cm-1
   845    15337.14403341    43200.70522756       20.00000000      cm-1
   846    15345.12013799    43208.68133214       12.00000000      cm-1
   847    15350.31007890    43213.87127305       20.00000000      cm-1
   848    15352.99997114    43216.56116529       12.00000000      cm-1
   849    15362.25800743    43225.81920158       12.00000000      cm-1
   850    15381.25309761    43244.81429176       20.00000000      cm-1
   851    15387.28969126    43250.85088541       12.00000000      cm-1
   852    15388.80951008    43252.37070423        6.00000000      cm-1
   853    15407.89429905    43271.45549320       20.00000000      cm-1
   854    15421.00876455    43284.56995870        0.00000000      cm-1
   855    15421.80610288    43285.36729703       20.00000000      cm-1
   856    15427.66713163    43291.22832578        2.00000000      cm-1
   857    15437.75704293    43301.31823708        2.00000000      cm-1
   858    15441.55271284    43305.11390699        6.00000000      cm-1
   859    15455.83315435    43319.39434850        6.00000000      cm-1
   860    15462.64821927    43326.20941342       12.00000000      cm-1
   861    15474.19429382    43337.75548797        2.00000000      cm-1
   862    15482.48581622    43346.04701037       12.00000000      cm-1
   863    15487.51479557    43351.07598972        6.00000000      cm-1
   864    15490.72869099    43354.28988514       20.00000000      cm-1
   865    15507.35184507    43370.91303922       12.00000000      cm-1
   866    15508.40839282    43371.96958697        2.00000000      cm-1
   867    15516.19771664    43379.75891079        0.00000000      cm-1
   868    15517.09729827    43380.65849242       20.00000000      cm-1
   869    15523.63168033    43387.19287448        2.00000000      cm-1
   870    15525.05051511    43388.61170926        6.00000000      cm-1
   871    15538.45727441    43402.01846856        6.00000000      cm-1
   872    15540.46187631    43404.02307046       12.00000000      cm-1
   873    15542.50699965    43406.06819380        2.00000000      cm-1
   874    15545.27736467    43408.83855882        2.00000000      cm-1
   875    15550.08207572    43413.64326987       12.00000000      cm-1
   876    15552.92657994    43416.48777409       12.00000000      cm-1
   877    15556.05678579    43419.61797994       30.00000000      cm-1
   878    15556.78209619    43420.34329034        6.00000000      cm-1
   879    15560.51948319    43424.08067734       12.00000000      cm-1
   880    15563.42648127    43426.98767542        6.00000000      cm-1
   881    15565.63225298    43429.19344712        2.00000000      cm-1
   882    15572.79230483    43436.35349898       30.00000000      cm-1
   883    15577.02549446    43440.58668861        6.00000000      cm-1
   884    15578.00674730    43441.56794145       12.00000000      cm-1
   885    15581.75858276    43445.31977691       20.00000000      cm-1
   886    15584.10977966    43447.67097381       12.00000000      cm-1
   887    15588.08560467    43451.64679882        2.00000000      cm-1
   888    15589.18801789    43452.74921204       20.00000000      cm-1
   889    15595.96310000    43459.52429415        6.00000000      cm-1
   890    15597.50920327    43461.07039742       20.00000000      cm-1
   891    15598.71114004    43462.27233419       12.00000000      cm-1
   892    15603.58719818    43467.14839233       20.00000000      cm-1
   893    15605.02441905    43468.58561320       12.00000000      cm-1
   894    15606.61888005    43470.18007420       20.00000000      cm-1
   895    15615.81199129    43479.37318544       20.00000000      cm-1
   896    15628.88555767    43492.44675182       30.00000000      cm-1
   897    15635.53190617    43499.09310032       12.00000000      cm-1
   898    15635.95020116    43499.51139531       20.00000000      cm-1
   899    15640.91069211    43504.47188626       30.00000000      cm-1
   900    15641.74771518    43505.30890933       20.00000000      cm-1
   901    15652.16828930    43515.72948345       30.00000000      cm-1
   902    15662.91050083    43526.47169498       30.00000000      cm-1
   903    15674.99355766    43538.55475181       30.00000000      cm-1
   904    15683.18793487    43546.74912902       30.00000000      cm-1
   905    27330.26503490    55193.82622905        6.00000000      cm-1
   906    27372.27986364    55235.84105779        2.00000000      cm-1
   907    27386.82605315    55250.38724730        6.00000000      cm-1
   908    27408.64649654    55272.20769069       12.00000000      cm-1
   909    27476.22627481    55339.78746896        0.00000000      cm-1
   910    27483.54145630    55347.10265045        2.00000000      cm-1
   911    27498.16004131    55361.72123546        6.00000000      cm-1
   912    27520.05854958    55383.61974373       12.00000000      cm-1
   913    27549.20191736    55412.76311151       20.00000000      cm-1
   914    27646.32861799    55509.88981214        2.00000000      cm-1
   915    27661.04866974    55524.60986389        6.00000000      cm-1
   916    27683.08497888    55546.64617303       12.00000000      cm-1
   917    27712.38564563    55575.94683978       20.00000000      cm-1
   918    27748.88249024    55612.44368439       30.00000000      cm-1
   919    27871.07176909    55734.63296324        6.00000000      cm-1
   920    27893.29515611    55756.85635026       12.00000000      cm-1
   921    27922.83152652    55786.39272067       20.00000000      cm-1
   922    27959.60140180    55823.16259595       30.00000000      cm-1
   923    28003.50759790    55867.06879205       42.00000000      cm-1
 Analysis of SCF Wavefunction

 --------------------------------------------------------------

                    Orbital Energies (a.u.)
 --------------------------------------------------------------

 Alpha MOs
 -- Occupied --
 -0.914  -0.914  -0.516  -0.516  -0.516  -0.516  -0.516  -0.515
 -0.516  -0.515  -0.516  -0.516  -0.518  -0.516
 -- Virtual --
  0.970   1.013   0.839   0.972   0.943   1.242   1.317   1.085
  0.983   1.011   0.967   0.970   1.016   1.018

 Beta MOs
 -- Occupied --
 -0.914  -0.914
 -- Virtual --
  0.148   0.147   0.147   0.147   0.147   0.149   0.147   0.147
  0.147   0.147   0.148   0.147   1.134   1.160   1.017   1.131
  1.107   1.306   1.349   1.232   1.138   1.170   1.135   1.135
  1.187   1.182
 --------------------------------------------------------------

          Ground-State Mulliken Net Atomic Charges

     Atom                 Charge (a.u.)
  ----------------------------------------
      1 H                     0.000109
      2 H                     0.000003
      3 H                    -0.000003
      4 H                     0.000003
      5 H                    -0.000003
      6 H                     0.000000
      7 H                     0.000006
      8 H                    -0.000004
      9 H                     0.000064
     10 H                    -0.000045
     11 H                    -0.000063
     12 H                    -0.000068
     13 He                    0.000000
     14 He                   -0.000000
  ----------------------------------------
  Sum of atomic charges =    -0.000000

 -----------------------------------------------------------------
                    Cartesian Multipole Moments
 -----------------------------------------------------------------
    Charge (ESU x 10^10)
                 0.0000
    Dipole Moment (Debye)
         X      -0.0005      Y      -0.0005      Z       0.0001
       Tot       0.0007
    Quadrupole Moments (Debye-Ang)
        XX     -19.5978     XY       0.0139     YY     -19.5167
        XZ       0.0001     YZ      -0.0010     ZZ     -19.5147
    Octopole Moments (Debye-Ang^2)
       XXX     -19.5105    XXY     -38.6488    XYY      -4.8335
       YYY    -118.4941    XXZ     -22.9262    XYZ      -0.0082
       YYZ     -23.7849    XZZ      -4.1148    YZZ     -38.5522
       ZZZ     -70.7116
    Hexadecapole Moments (Debye-Ang^3)
      XXXX   -1642.3714   XXXY     -17.2201   XXYY    -598.2721
      XYYY     -14.2620   YYYY   -1928.3010   XXXZ       3.4154
      XXYZ    -215.5274   XYYZ       0.0259   YYYZ    -657.3390
      XXZZ    -491.0363   XYZZ      -4.5423   YYZZ    -548.4166
      XZZZ       4.4595   YZZZ    -651.3460   ZZZZ   -1318.2316
 -----------------------------------------------------------------
 JobOver = TRUE
Archival summary:
1\1\sinatra\SP\ROProcedureUnspecified\6-31G*\e212()\nmayhall\MonMar2016:11:072017MonMar2016:11:072017\0\\#,ROProcedureUnspecified,6-31G*,\\0,13\H\H,1,1.8108\H,2,1.8111,1,60.0291\H,3,1.81133,2,60.0389,1,70.5227,0\H,1,2.837,2,152.386,3,178.05,0\H,5,1.8112,1,73.0863,2,-68.5028,0\H,6,1.81121,5,60.0005,1,-92.9521,0\H,7,1.81039,6,60.0315,5,-70.571,0\H,3,3.43305,2,144.849,1,-28.0344,0\H,9,1.81065,3,137.895,2,-172.724,0\H,9,1.81086,3,150.202,2,-57.0221,0\H,10,1.81131,9,60.0237,3,78.3687,0\He,10,14.157,9,121.92,3,-142.544,0\He,10,14.393,9,122.079,3,-31.1618,0\\HF=-11.4720318\\@

 Total job time:  0.50s(wall), 0.50s(cpu) 
 Mon Mar 20 16:11:07 2017

        *************************************************************
        *                                                           *
        *  Thank you very much for using Q-Chem.  Have a nice day.  *
        *                                                           *
        *************************************************************


*** MISSION COMPLETED -- STARFLEET OUT ***

