                  Welcome to Q-Chem
     A Quantum Leap Into The Future Of Chemistry


 Q-Chem 4.3, Q-Chem, Inc., Pleasanton, CA (2015)

 Y. Shao,  Z. Gan,  E. Epifanovsky,  A. T. B. Gilbert,  M. Wormit,  
 J. Kussmann,  A. W. Lange,  A. Behn,  J. Deng,  X. Feng,  D. Ghosh,  
 M. Goldey,  P. R. Horn,  L. D. Jacobson,  I. Kaliman,  R. Z. Khaliullin,  
 T. Kus,  A. Landau,  J. Liu,  E. I. Proynov,  Y. M. Rhee,  R. M. Richard,  
 M. A. Rohrdanz,  R. P. Steele,  E. J. Sundstrom,  H. L. Woodcock III,  
 P. M. Zimmerman,  D. Zuev,  B. Albrecht,  E. Alguire,  B. Austin,  
 S. A. Baeppler,  G. J. O. Beran,  Y. A. Bernard,  E. Berquist,  
 K. Brandhorst,  K. B. Bravaya,  S. T. Brown,  D. Casanova,  C.-M. Chang,  
 Y. Chen,  S. H. Chien,  K. D. Closser,  D. L. Crittenden,  M. Diedenhofen,  
 R. A. DiStasio Jr.,  H. Do,  A. D. Dutoi,  R. G. Edgar,  P.-T. Fang,  
 S. Fatehi,  Q. Feng,  L. Fusti-Molnar,  A. Ghysels,  
 A. Golubeva-Zadorozhnaya,  J. Gomes,  A. Gunina,  M. W. D. Hanson-Heine,  
 P. H. P. Harbach,  A. W. Hauser,  E. G. Hohenstein,  Z. C. Holden,  K. Hui,  
 T.-C. Jagau,  H. Ji,  B. Kaduk,  K. Khistyaev,  Jaehoon Kim,  Jihan Kim,  
 R. A. King,  P. Klunzinger,  D. Kosenkov,  T. Kowalczyk,  C. M. Krauter,  
 K. U. Lao,  A. Laurent,  K. V. Lawler,  S. Lehtola,  S. V. Levchenko,  
 C. Y. Lin,  Y.-S. Lin,  F. Liu,  E. Livshits,  R. C. Lochan,  A. Luenser,  
 P. Manohar,  S. F. Manzer,  S.-P. Mao,  N. Mardirossian,  A. V. Marenich,  
 L. A. Martinez-Martinez,  S. A. Maurer,  N. J. Mayhall,  K. Nanda,  
 C. M. Oana,  R. Olivares-Amaya,  D. P. O'Neill,  J. A. Parkhill,  
 T. M. Perrine,  R. Peverati,  P. A. Pieniazek,  F. Plasser,  A. Prociuk,  
 D. R. Rehn,  E. Rosta,  N. J. Russ,  N. Sergueev,  S. M. Sharada,  
 S. Sharma,  D. W. Small,  A. Sodt,  T. Stauch,  T. Stein,  D. Stuck,  
 Y.-C. Su,  A. J. W. Thom,  T. Tsuchimochi,  L. Vogt,  O. Vydrov,  T. Wang,  
 M. A. Watson,  J. Wenzel,  A. White,  C. F. Williams,  V. Vanovschi,  
 S. Yeganeh,  S. R. Yost,  Z.-Q. You,  I. Y. Zhang,  X. Zhang,  Y. Zhao,  
 B. R. Brooks,  G. K. L. Chan,  D. M. Chipman,  C. J. Cramer,  
 W. A. Goddard III,  M. S. Gordon,  W. J. Hehre,  A. Klamt,  
 H. F. Schaefer III,  M. W. Schmidt,  C. D. Sherrill,  D. G. Truhlar,  
 A. Warshel,  X. Xu,  A. Aspuru-Guzik,  R. Baer,  A. T. Bell,  N. A. Besley,  
 J.-D. Chai,  A. Dreuw,  B. D. Dunietz,  T. R. Furlani,  S. R. Gwaltney,  
 C.-P. Hsu,  Y. Jung,  J. Kong,  D. S. Lambrecht,  W. Liang,  C. Ochsenfeld,  
 V. A. Rassolov,  L. V. Slipchenko,  J. E. Subotnik,  T. Van Voorhis,  
 J. M. Herbert,  A. I. Krylov,  P. M. W. Gill,  M. Head-Gordon

 Contributors to earlier versions of Q-Chem not listed above: 
 R. D. Adamson,  J. Baker,  E. F. C. Byrd,  A. K. Chakraborty,  C.-L. Cheng,  
 H. Dachsel,  R. J. Doerksen,  G. Hawkins,  A. Heyden,  S. Hirata,  
 G. Kedziora,  F. J. Keil,  C. Kelley,  P. P. Korambath,  W. Kurlancheek,  
 A. M. Lee,  M. S. Lee,  D. Liotard,  I. Lotan,  P. E. Maslen,  N. Nair,  
 D. Neuhauser,  R. Olson,  B. Peters,  J. Ritchie,  N. E. Schultz,  
 N. Shenvi,  A. C. Simmonett,  K. S. Thanthiriwatte,  Q. Wu,  W. Zhang

 Please cite Q-Chem as follows:
 Y. Shao et al., Mol. Phys. 113, 184-215 (2015)
 DOI: 10.1080/00268976.2014.952696

 Q-Chem 4.3.0 for Intel X86 EM64T Linux

 Parts of Q-Chem use Armadillo 5.200.1 (Boston Tea Smuggler).
 http://arma.sourceforge.net/

 Q-Chem begins on Fri Mar 24 13:22:14 2017  


Host: 0

     Scratch files written to /home/nmayhall/scratch_qchem/h1//
 Dec1416 |home|nmayhall|qcSoftware|qchem|qchem.svn-casman|libmdc|qstr_RNUM -1
 Using version located at /home/nmayhall/qcSoftware/qchem/qchem.svn-casman/bin/qchem


Total Memory Limit in MB = 2000
Mega-Array Size in MB = 62

Checking the input file for inconsistencies... 	...done.

 Q-Chem warning in module /home/nmayhall/qcSoftware/qchem/qchem.svn-casman/forms1/BasisType.C, line 1452:

 You are not using the predefined 5D/6D in this basis set.

Finally everything over in PARseQInput

--------------------------------------------------------------
User input:
--------------------------------------------------------------
$rem
	exchange 		hf
	unrestricted		1
	basis			6-31g*	
	aux_basis		rimp2-vdz
	scf_guess		core	
	scf_convergence		8
	purecart		1111

	symmetry		0
	sym_ignore		1

	!correlation		sf-cas
	!cas_n_spin_flip		1
	!cas_local		1
	gui			2
$end

$development
	1sf_heis_projection	1
$end

$molecule
0 13
H         -0.73854       -0.54065        0.08576
H         -2.31340       -1.01748       -0.67017
H         -2.09582        0.65549       -0.01146
H         -2.21044       -0.75437        1.11995
H	1.47674	3.07203	0.09828
H	0.1685	3.66022	1.20546
H	0.18287	1.9348	0.65668
H	-0.21686	3.25528	-0.51743
H          3.48850       -0.87553       -0.06084
H          2.29649        0.48578       -0.00191
H          1.93960       -1.06676        0.85992
H          1.91588       -1.00965       -0.95022
He	10	10	10	
He	-10	10	10	
$end


--------------------------------------------------------------
 ----------------------------------------------------------------
             Standard Nuclear Orientation (Angstroms)
    I     Atom           X                Y                Z
 ----------------------------------------------------------------
    1      H      -0.7385400000    -0.5406500000     0.0857600000
    2      H      -2.3134000000    -1.0174800000    -0.6701700000
    3      H      -2.0958200000     0.6554900000    -0.0114600000
    4      H      -2.2104400000    -0.7543700000     1.1199500000
    5      H       1.4767400000     3.0720300000     0.0982800000
    6      H       0.1685000000     3.6602200000     1.2054600000
    7      H       0.1828700000     1.9348000000     0.6566800000
    8      H      -0.2168600000     3.2552800000    -0.5174300000
    9      H       3.4885000000    -0.8755300000    -0.0608400000
   10      H       2.2964900000     0.4857800000    -0.0019100000
   11      H       1.9396000000    -1.0667600000     0.8599200000
   12      H       1.9158800000    -1.0096500000    -0.9502200000
   13      He     10.0000000000    10.0000000000    10.0000000000
   14      He    -10.0000000000    10.0000000000    10.0000000000
 ----------------------------------------------------------------
 Nuclear Repulsion Energy =    12.9966277268 hartrees
 There are       14 alpha and        2 beta electrons
 Requested basis set is 6-31G(d)
 There are 28 shells and 28 basis functions

Total QAlloc Memory Limit   2000 MB
Mega-Array Size        61 MB
MEM_STATIC part        62 MB

finished with qalloc call

                       Distance Matrix (Angstroms)
             H (  1)   H (  2)   H (  3)   H (  4)   H (  5)   H (  6)
   H (  2)  1.810796
   H (  3)  1.811743  1.811096
   H (  4)  1.811550  1.812280  1.811334
   H (  5)  4.237815  5.628478  4.314498  5.411141
   H (  6)  4.441144  5.617712  3.954294  5.015503  1.811990
   H (  7)  2.702369  4.087524  2.697309  3.629626  1.810857  1.810646
   H (  8)  3.878798  4.761858  3.247369  4.767879  1.811342  1.811306
   H (  9)  4.242818  5.835536  5.790604  5.821242  4.433478  5.761852
   H ( 10)  3.205098  4.894635  4.395598  4.807178  2.714906  4.007886
   H ( 11)  2.836997  4.520134  4.473261  4.169896  4.233665  5.059697
   H ( 12)  2.887761  4.238549  4.443838  4.623558  4.237016  5.432125
   He( 13) 18.019814 19.668686 18.271783 18.536629 14.788062 14.635407
   He( 14) 17.180573 17.155792 15.812187 15.974636 16.666025 14.863887
             H (  7)   H (  8)   H (  9)   H ( 10)   H ( 11)   H ( 12)
   H (  8)  1.811625
   H (  9)  4.397724  5.567922
   H ( 10)  2.645900  3.775291  1.810394
   H ( 11)  3.483787  5.022693  1.812032  1.811216
   H ( 12)  3.775611  4.788060  1.811662  1.811206  1.811196
   He( 13) 15.770895 16.139759 16.183241 15.808310 16.461600 17.506362
   He( 14) 16.001122 15.868756 20.035900 18.486813 18.669984 19.573143
             He( 13)
   He( 14) 20.000000


 Q-Chem warning in module /home/nmayhall/qcSoftware/qchem/qchem.svn-casman/forms1/BasisType.C, line 1375:

 SAD: How to set up polarization functions for non-Pople basis?

 Requested basis set is rimp2-VDZ
 There are 82 shells and 186 basis functions
 Job number = 2, Threshold = 1.00E-11
Integral type ranges set in mkLRange.C for JobNum: 2  <1-7|1-7>
Symmetry turned off temporarily
 Using the largest function pair in Schwarz integrals
Total number of integrals generated =            1014
Symmetry turned back on
 A cutoff of  1.0D-11 yielded    288 shell pairs
 There are       288 function pairs
 Job number = 11, Threshold = 1.00E-11
Integral type ranges set in mkLRange.C for JobNum: 11  <1-1|8-8>

 -------------------------------------------------------
 OpenMP Integral Computing Module                       
 Release: version 1.0, May 2013, Q-Chem Inc. Pittsburgh 
 -------------------------------------------------------
 Integral Job Info:
 Integral job number is                      11
 Integral operator is                         1
 short-range coefficients                     0
 long-range coefficients              100000000
 Omega coefficients                           0
 if combine SR and LR in K                    0
 Integral screening is                        0
 Integral computing path is                   2
 max size of driver memory is            800000
 size of driver memory is                 11780
 size of scratch memory is               800000
 max col of scratch BK array                289
 max len of scratch array in speh3            1
 max len of scratch index in speh4            2
 max int batch size is                      520
 min int batch size is                       52
 fixed nKL is                               520
 max L of basis functions is                  0
 order of int derivative is                   0
 number of shells is                         28
 number of basis is                          28
 number of cartesian basis is                28
 number of contracted shell pairs           288
 number of primitive shell pairs            814
 maxK2 (contraction) of shell pair            9
 max number of K2 of shell pair               1
 max number of CS2 of shell pair            148
 max number of PS2 of shell pair            444
 mem total for path MDJ                    6792
 -------------------------------------------------------
 Smallest overlap matrix eigenvalue = 1.86E-01
 Multipole matrices computed through 2nd order

  Scale SEOQF with 1.000000e-02/1.000000e-02/1.000000e-02

 Standard Electronic Orientation quadrupole field applied
 Nucleus-field energy     =     0.0000000004 hartrees
GuessMan:  IGuess = 1
 Guess MOs from core Hamiltonian diagonalization
scfman initvdwdat 
 An unrestricted Hartree-Fock SCF calculation will be
 performed using Pulay DIIS extrapolation
 SCF converges when DIIS error is below 1.0E-08
Finding J and K together
 Job number = 22, Threshold = 1.00E-11
Integral type ranges set in mkLRange.C for JobNum: 22  <1-1|1-1>
Storing 4368.95% of integrals
Total number of integrals generated =           38245
 MakeJK  time:  CPU       0.01 s  wall       0.01 s
Fock build time:  0.01 s (CPU) 0.01 s (wall)
DIIS Errors:  Max 3.63E-01 RMS 3.10E-02

Current DIIS subspace size = 1
REM_GRID_RESTART_DIIS = 0

 ---------------------------------------
  Cycle       Energy         DIIS Error
 ---------------------------------------
    1      -9.4317861113      3.10E-02  00000
Finding J and K together
 Job number = 22, Threshold = 1.00E-11
Integral type ranges set in mkLRange.C for JobNum: 22  <1-1|1-1>
Storing 4368.95% of integrals
Reusing in-core integrals buffer for job 22
 MakeJK  time:  CPU       0.00 s  wall       0.00 s
Fock build time:  0.00 s (CPU) 0.00 s (wall)
DIIS Errors:  Max 2.54E-01 RMS 1.94E-02

Current DIIS subspace size = 2
REM_GRID_RESTART_DIIS = 0

    2     -11.3645339018      1.94E-02  00000
Finding J and K together
 Job number = 22, Threshold = 1.00E-11
Integral type ranges set in mkLRange.C for JobNum: 22  <1-1|1-1>
Storing 4368.95% of integrals
Reusing in-core integrals buffer for job 22
 MakeJK  time:  CPU       0.00 s  wall       0.00 s
Fock build time:  0.00 s (CPU) 0.00 s (wall)
DIIS Errors:  Max 1.04E-01 RMS 8.30E-03

Current DIIS subspace size = 3
REM_GRID_RESTART_DIIS = 0

    3     -11.4347031730      8.30E-03  00000
Finding J and K together
 Job number = 22, Threshold = 1.00E-11
Integral type ranges set in mkLRange.C for JobNum: 22  <1-1|1-1>
Storing 4368.95% of integrals
Reusing in-core integrals buffer for job 22
 MakeJK  time:  CPU       0.00 s  wall       0.00 s
Fock build time:  0.00 s (CPU) 0.00 s (wall)
DIIS Errors:  Max 9.53E-03 RMS 9.43E-04

Current DIIS subspace size = 4
REM_GRID_RESTART_DIIS = 0

    4     -11.4647872574      9.43E-04  00000
Finding J and K together
 Job number = 22, Threshold = 1.00E-11
Integral type ranges set in mkLRange.C for JobNum: 22  <1-1|1-1>
Storing 4368.95% of integrals
Reusing in-core integrals buffer for job 22
 MakeJK  time:  CPU       0.00 s  wall       0.00 s
Fock build time:  0.00 s (CPU) 0.00 s (wall)
DIIS Errors:  Max 1.34E-04 RMS 1.06E-05

Current DIIS subspace size = 5
REM_GRID_RESTART_DIIS = 0

    5     -11.4674473113      1.06E-05  00000
Finding J and K together
 Job number = 22, Threshold = 1.00E-11
Integral type ranges set in mkLRange.C for JobNum: 22  <1-1|1-1>
Storing 4368.95% of integrals
Reusing in-core integrals buffer for job 22
 MakeJK  time:  CPU       0.00 s  wall       0.00 s
Fock build time:  0.00 s (CPU) 0.00 s (wall)
DIIS Errors:  Max 1.33E-05 RMS 1.02E-06

Current DIIS subspace size = 6
REM_GRID_RESTART_DIIS = 0

    6     -11.4675552067      1.02E-06  00000
Finding J and K together
 Job number = 22, Threshold = 1.00E-11
Integral type ranges set in mkLRange.C for JobNum: 22  <1-1|1-1>
Storing 4368.95% of integrals
Reusing in-core integrals buffer for job 22
 MakeJK  time:  CPU       0.00 s  wall       0.00 s
Fock build time:  0.00 s (CPU) 0.00 s (wall)
DIIS Errors:  Max 9.67E-07 RMS 7.75E-08

Current DIIS subspace size = 7
REM_GRID_RESTART_DIIS = 0

    7     -11.4675712992      7.75E-08  00000
Finding J and K together
 Job number = 22, Threshold = 1.00E-11
Integral type ranges set in mkLRange.C for JobNum: 22  <1-1|1-1>
Storing 4368.95% of integrals
Reusing in-core integrals buffer for job 22
 MakeJK  time:  CPU       0.00 s  wall       0.00 s
Fock build time:  0.00 s (CPU) 0.00 s (wall)
DIIS Errors:  Max 1.05E-07 RMS 8.58E-09

Current DIIS subspace size = 8
REM_GRID_RESTART_DIIS = 0

    8     -11.4675743890      8.58E-09  00000 Convergence criterion met
 ---------------------------------------
 <S^2> = 42.0000
 SCF time:  CPU 0.04 s  wall 0.04 s
 SCF   energy in the final basis set = -11.4675743890
 Total energy in the final basis set = -11.4675743890
Symmetry turned off temporarily
 Analysis of SCF Wavefunction

 --------------------------------------------------------------

                    Orbital Energies (a.u.)
 --------------------------------------------------------------

 Alpha MOs
 -- Occupied --
 -0.914  -0.914  -0.716  -0.698  -0.697  -0.480  -0.471  -0.465
 -0.456  -0.453  -0.452  -0.441  -0.438  -0.427
 -- Virtual --
  0.814   0.853   0.868   0.899   0.927   0.929   0.973   0.992
  1.017   1.057   1.158   1.194   1.400   1.400

 Beta MOs
 -- Occupied --
 -0.914  -0.914
 -- Virtual --
 -0.057  -0.033  -0.031   0.128   0.139   0.146   0.159   0.166
  0.167   0.189   0.195   0.212   1.043   1.071   1.084   1.107
  1.130   1.132   1.171   1.188   1.210   1.259   1.354   1.387
  1.400   1.400
 --------------------------------------------------------------

          Ground-State Mulliken Net Atomic Charges

     Atom                 Charge (a.u.)    Spin (a.u.)
  --------------------------------------------------------
      1 H                     0.000046       0.999954
      2 H                     0.000055       0.999945
      3 H                    -0.000018       1.000018
      4 H                    -0.000003       1.000003
      5 H                    -0.000040       1.000040
      6 H                     0.000041       0.999959
      7 H                     0.000035       0.999965
      8 H                    -0.000060       1.000060
      9 H                     0.000073       0.999927
     10 H                     0.000060       0.999940
     11 H                    -0.000098       1.000098
     12 H                    -0.000090       1.000090
     13 He                    0.000000       0.000000
     14 He                    0.000000      -0.000000
  --------------------------------------------------------
  Sum of atomic charges =    -0.000000
  Sum of spin   charges =    12.000000

 -----------------------------------------------------------------
                    Cartesian Multipole Moments
 -----------------------------------------------------------------
    Charge (ESU x 10^10)
                -0.0000
    Dipole Moment (Debye)
         X       0.0002      Y      -0.0005      Z       0.0004
       Tot       0.0007
    Quadrupole Moments (Debye-Ang)
        XX     -19.7003     XY       0.0215     YY     -19.6795
        XZ      -0.0018     YZ      -0.0405     ZZ     -19.5104
    Octopole Moments (Debye-Ang^2)
       XXX     -19.5717    XXY     -31.5310    XYY      -4.8816
       YYY     -98.1850    XXZ     -22.8788    XYZ      -0.0214
       YYZ     -23.9049    XZZ      -4.1018    YZZ     -31.5980
       ZZZ     -70.7123
    Hexadecapole Moments (Debye-Ang^3)
      XXXX   -1643.4781   XXXY      -7.6010   XXYY    -547.8807
      XYYY      -7.2610   YYYY   -1634.0588   XXXZ       3.4497
      XXYZ    -213.5023   XYYZ       0.0904   YYYZ    -648.3617
      XXZZ    -491.0220   XYZZ      -2.2563   YYZZ    -497.5042
      XZZZ       4.4662   YZZZ    -643.9119   ZZZZ   -1318.2381
 -----------------------------------------------------------------
 JobOver = TRUE
Archival summary:
1\1\sinatra\SP\HF\6-31G*\e212()\nmayhall\FriMar2413:22:142017FriMar2413:22:142017\0\\#,HF,6-31G*,\\0,13\H\H,1,1.81065\H,1,1.81086,2,60.0452\H,2,1.81131,1,60.0237,3,-70.5123,0\H,1,2.6459,2,127.132,3,-28.852,0\H,5,1.81039,1,161.062,2,-128.385,0\H,5,1.81121,1,114.496,2,162.928,0\H,7,1.8112,5,60.0005,1,89.002,0\H,1,2.69731,2,121.355,3,139.819,0\H,9,1.8111,1,129.028,2,-176.133,0\H,10,1.8108,9,60.0291,1,-15.5086,0\H,9,1.81133,1,105.539,2,120.091,0\He,2,14.6354,1,126.128,3,67.0984,0\He,2,14.8639,1,126.242,3,-178.626,0\\HF=-11.4675744\\@

 Total job time:  0.09s(wall), 0.09s(cpu) 
 Fri Mar 24 13:22:14 2017

        *************************************************************
        *                                                           *
        *  Thank you very much for using Q-Chem.  Have a nice day.  *
        *                                                           *
        *************************************************************


*** MISSION COMPLETED -- STARFLEET OUT ***

 
User input: 2 of 2 
 
                  Welcome to Q-Chem
     A Quantum Leap Into The Future Of Chemistry


 Q-Chem 4.3, Q-Chem, Inc., Pleasanton, CA (2015)

 Y. Shao,  Z. Gan,  E. Epifanovsky,  A. T. B. Gilbert,  M. Wormit,  
 J. Kussmann,  A. W. Lange,  A. Behn,  J. Deng,  X. Feng,  D. Ghosh,  
 M. Goldey,  P. R. Horn,  L. D. Jacobson,  I. Kaliman,  R. Z. Khaliullin,  
 T. Kus,  A. Landau,  J. Liu,  E. I. Proynov,  Y. M. Rhee,  R. M. Richard,  
 M. A. Rohrdanz,  R. P. Steele,  E. J. Sundstrom,  H. L. Woodcock III,  
 P. M. Zimmerman,  D. Zuev,  B. Albrecht,  E. Alguire,  B. Austin,  
 S. A. Baeppler,  G. J. O. Beran,  Y. A. Bernard,  E. Berquist,  
 K. Brandhorst,  K. B. Bravaya,  S. T. Brown,  D. Casanova,  C.-M. Chang,  
 Y. Chen,  S. H. Chien,  K. D. Closser,  D. L. Crittenden,  M. Diedenhofen,  
 R. A. DiStasio Jr.,  H. Do,  A. D. Dutoi,  R. G. Edgar,  P.-T. Fang,  
 S. Fatehi,  Q. Feng,  L. Fusti-Molnar,  A. Ghysels,  
 A. Golubeva-Zadorozhnaya,  J. Gomes,  A. Gunina,  M. W. D. Hanson-Heine,  
 P. H. P. Harbach,  A. W. Hauser,  E. G. Hohenstein,  Z. C. Holden,  K. Hui,  
 T.-C. Jagau,  H. Ji,  B. Kaduk,  K. Khistyaev,  Jaehoon Kim,  Jihan Kim,  
 R. A. King,  P. Klunzinger,  D. Kosenkov,  T. Kowalczyk,  C. M. Krauter,  
 K. U. Lao,  A. Laurent,  K. V. Lawler,  S. Lehtola,  S. V. Levchenko,  
 C. Y. Lin,  Y.-S. Lin,  F. Liu,  E. Livshits,  R. C. Lochan,  A. Luenser,  
 P. Manohar,  S. F. Manzer,  S.-P. Mao,  N. Mardirossian,  A. V. Marenich,  
 L. A. Martinez-Martinez,  S. A. Maurer,  N. J. Mayhall,  K. Nanda,  
 C. M. Oana,  R. Olivares-Amaya,  D. P. O'Neill,  J. A. Parkhill,  
 T. M. Perrine,  R. Peverati,  P. A. Pieniazek,  F. Plasser,  A. Prociuk,  
 D. R. Rehn,  E. Rosta,  N. J. Russ,  N. Sergueev,  S. M. Sharada,  
 S. Sharma,  D. W. Small,  A. Sodt,  T. Stauch,  T. Stein,  D. Stuck,  
 Y.-C. Su,  A. J. W. Thom,  T. Tsuchimochi,  L. Vogt,  O. Vydrov,  T. Wang,  
 M. A. Watson,  J. Wenzel,  A. White,  C. F. Williams,  V. Vanovschi,  
 S. Yeganeh,  S. R. Yost,  Z.-Q. You,  I. Y. Zhang,  X. Zhang,  Y. Zhao,  
 B. R. Brooks,  G. K. L. Chan,  D. M. Chipman,  C. J. Cramer,  
 W. A. Goddard III,  M. S. Gordon,  W. J. Hehre,  A. Klamt,  
 H. F. Schaefer III,  M. W. Schmidt,  C. D. Sherrill,  D. G. Truhlar,  
 A. Warshel,  X. Xu,  A. Aspuru-Guzik,  R. Baer,  A. T. Bell,  N. A. Besley,  
 J.-D. Chai,  A. Dreuw,  B. D. Dunietz,  T. R. Furlani,  S. R. Gwaltney,  
 C.-P. Hsu,  Y. Jung,  J. Kong,  D. S. Lambrecht,  W. Liang,  C. Ochsenfeld,  
 V. A. Rassolov,  L. V. Slipchenko,  J. E. Subotnik,  T. Van Voorhis,  
 J. M. Herbert,  A. I. Krylov,  P. M. W. Gill,  M. Head-Gordon

 Contributors to earlier versions of Q-Chem not listed above: 
 R. D. Adamson,  J. Baker,  E. F. C. Byrd,  A. K. Chakraborty,  C.-L. Cheng,  
 H. Dachsel,  R. J. Doerksen,  G. Hawkins,  A. Heyden,  S. Hirata,  
 G. Kedziora,  F. J. Keil,  C. Kelley,  P. P. Korambath,  W. Kurlancheek,  
 A. M. Lee,  M. S. Lee,  D. Liotard,  I. Lotan,  P. E. Maslen,  N. Nair,  
 D. Neuhauser,  R. Olson,  B. Peters,  J. Ritchie,  N. E. Schultz,  
 N. Shenvi,  A. C. Simmonett,  K. S. Thanthiriwatte,  Q. Wu,  W. Zhang

 Please cite Q-Chem as follows:
 Y. Shao et al., Mol. Phys. 113, 184-215 (2015)
 DOI: 10.1080/00268976.2014.952696

 Q-Chem 4.3.0 for Intel X86 EM64T Linux

 Parts of Q-Chem use Armadillo 5.200.1 (Boston Tea Smuggler).
 http://arma.sourceforge.net/

 Q-Chem begins on Fri Mar 24 13:22:14 2017  


Host: 0

     Scratch files written to /home/nmayhall/scratch_qchem/h1//
 Dec1416 |home|nmayhall|qcSoftware|qchem|qchem.svn-casman|libmdc|qstr_RNUM -1
 Using version located at /home/nmayhall/qcSoftware/qchem/qchem.svn-casman/bin/qchem

 Turning off symmetry for CASMAN

Total Memory Limit in MB = 2000
Mega-Array Size in MB = 62

Checking the input file for inconsistencies... 	...done.

 Q-Chem warning in module /home/nmayhall/qcSoftware/qchem/qchem.svn-casman/forms1/BasisType.C, line 1452:

 You are not using the predefined 5D/6D in this basis set.

Finally everything over in PARseQInput

--------------------------------------------------------------
User input:
--------------------------------------------------------------
$rem
	exchange 		hf
	unrestricted		0
	basis			6-31g*	
	aux_basis		rimp2-vdz
	scf_guess		read	
	scf_convergence		8
	purecart		1111

	symmetry		0
	sym_ignore		1

	correlation		sf-cas
	cas_n_spin_flip		1
	cas_local		1
	gui			2
$end

$development
	1sf_heis_projection	1
	scf_corresponding_orbs	1
$end

$molecule
read
$end

--------------------------------------------------------------
 ----------------------------------------------------------------
             Standard Nuclear Orientation (Angstroms)
    I     Atom           X                Y                Z
 ----------------------------------------------------------------
    1      H      -0.7385400000    -0.5406500000     0.0857600000
    2      H      -2.3134000000    -1.0174800000    -0.6701700000
    3      H      -2.0958200000     0.6554900000    -0.0114600000
    4      H      -2.2104400000    -0.7543700000     1.1199500000
    5      H       1.4767400000     3.0720300000     0.0982800000
    6      H       0.1685000000     3.6602200000     1.2054600000
    7      H       0.1828700000     1.9348000000     0.6566800000
    8      H      -0.2168600000     3.2552800000    -0.5174300000
    9      H       3.4885000000    -0.8755300000    -0.0608400000
   10      H       2.2964900000     0.4857800000    -0.0019100000
   11      H       1.9396000000    -1.0667600000     0.8599200000
   12      H       1.9158800000    -1.0096500000    -0.9502200000
   13      He     10.0000000000    10.0000000000    10.0000000000
   14      He    -10.0000000000    10.0000000000    10.0000000000
 ----------------------------------------------------------------
 Nuclear Repulsion Energy =    12.9966277268 hartrees
 There are       14 alpha and        2 beta electrons
 Requested basis set is 6-31G(d)
 There are 28 shells and 28 basis functions

Total QAlloc Memory Limit   2000 MB
Mega-Array Size        61 MB
MEM_STATIC part        62 MB

finished with qalloc call

                       Distance Matrix (Angstroms)
             H (  1)   H (  2)   H (  3)   H (  4)   H (  5)   H (  6)
   H (  2)  1.810796
   H (  3)  1.811743  1.811096
   H (  4)  1.811550  1.812280  1.811334
   H (  5)  4.237815  5.628478  4.314498  5.411141
   H (  6)  4.441144  5.617712  3.954294  5.015503  1.811990
   H (  7)  2.702369  4.087524  2.697309  3.629626  1.810857  1.810646
   H (  8)  3.878798  4.761858  3.247369  4.767879  1.811342  1.811306
   H (  9)  4.242818  5.835536  5.790604  5.821242  4.433478  5.761852
   H ( 10)  3.205098  4.894635  4.395598  4.807178  2.714906  4.007886
   H ( 11)  2.836997  4.520134  4.473261  4.169896  4.233665  5.059697
   H ( 12)  2.887761  4.238549  4.443838  4.623558  4.237016  5.432125
   He( 13) 18.019814 19.668686 18.271783 18.536629 14.788062 14.635407
   He( 14) 17.180573 17.155792 15.812187 15.974636 16.666025 14.863887
             H (  7)   H (  8)   H (  9)   H ( 10)   H ( 11)   H ( 12)
   H (  8)  1.811625
   H (  9)  4.397724  5.567922
   H ( 10)  2.645900  3.775291  1.810394
   H ( 11)  3.483787  5.022693  1.812032  1.811216
   H ( 12)  3.775611  4.788060  1.811662  1.811206  1.811196
   He( 13) 15.770895 16.139759 16.183241 15.808310 16.461600 17.506362
   He( 14) 16.001122 15.868756 20.035900 18.486813 18.669984 19.573143
             He( 13)
   He( 14) 20.000000


 Q-Chem warning in module /home/nmayhall/qcSoftware/qchem/qchem.svn-casman/forms1/BasisType.C, line 1375:

 SAD: How to set up polarization functions for non-Pople basis?

 Requested basis set is rimp2-VDZ
 There are 82 shells and 186 basis functions
 Job number = 2, Threshold = 1.00E-12
Integral type ranges set in mkLRange.C for JobNum: 2  <1-7|1-7>
Symmetry turned off temporarily
 Using the largest function pair in Schwarz integrals
Total number of integrals generated =            1015
Symmetry turned back on
 A cutoff of  1.0D-12 yielded    289 shell pairs
 There are       289 function pairs
 Job number = 11, Threshold = 1.00E-12
Integral type ranges set in mkLRange.C for JobNum: 11  <1-1|8-8>

 -------------------------------------------------------
 OpenMP Integral Computing Module                       
 Release: version 1.0, May 2013, Q-Chem Inc. Pittsburgh 
 -------------------------------------------------------
 Integral Job Info:
 Integral job number is                      11
 Integral operator is                         1
 short-range coefficients                     0
 long-range coefficients              100000000
 Omega coefficients                           0
 if combine SR and LR in K                    0
 Integral screening is                        0
 Integral computing path is                   2
 max size of driver memory is            800000
 size of driver memory is                 11780
 size of scratch memory is               800000
 max col of scratch BK array                289
 max len of scratch array in speh3            1
 max len of scratch index in speh4            2
 max int batch size is                      520
 min int batch size is                       52
 fixed nKL is                               520
 max L of basis functions is                  0
 order of int derivative is                   0
 number of shells is                         28
 number of basis is                          28
 number of cartesian basis is                28
 number of contracted shell pairs           289
 number of primitive shell pairs            819
 maxK2 (contraction) of shell pair            9
 max number of K2 of shell pair               1
 max number of CS2 of shell pair            148
 max number of PS2 of shell pair            444
 mem total for path MDJ                    6792
 -------------------------------------------------------
 Smallest overlap matrix eigenvalue = 1.86E-01
 Multipole matrices computed through 2nd order

  Scale SEOQF with 1.000000e-02/1.000000e-02/1.000000e-02

 Standard Electronic Orientation quadrupole field applied
 Nucleus-field energy     =     0.0000000004 hartrees
GuessMan:  IGuess = 1000
 Guess MOs from SCF MO coefficient file
 Reading MOs from coefficient file
 Reading MOs from coefficient file
scfman initvdwdat 
 A restricted Hartree-Fock SCF calculation will be
 performed using Geometric Direct Minimization
 SCF converges when RMS gradient is below 1.0E-08
Finding J and K together
 Job number = 22, Threshold = 1.00E-12
Integral type ranges set in mkLRange.C for JobNum: 22  <1-1|1-1>
Storing 4338.82% of integrals
Total number of integrals generated =           39239
 MakeJK  time:  CPU       0.01 s  wall       0.01 s
Fock build time:  0.01 s (CPU) 0.01 s (wall)
 ---------------------------------------
  Cycle       Energy        RMS Gradient
 ---------------------------------------
    1     -11.4675747573      2.54E-04  00000 Normal BFGS step
Finding J and K together
 Job number = 22, Threshold = 1.00E-12
Integral type ranges set in mkLRange.C for JobNum: 22  <1-1|1-1>
Storing 4338.82% of integrals
Reusing in-core integrals buffer for job 22
 MakeJK  time:  CPU       0.00 s  wall       0.00 s
Fock build time:  0.00 s (CPU) 0.00 s (wall)
    2     -11.4675747915      2.34E-09  00000 Convergence criterion met
 ---------------------------------------
 SCF time:  CPU 0.02 s  wall 0.02 s
 Obtaining Corresponding orbitals

 Forming corresponding orbitals block-by-block...
 Size of singly occupied alpha block:      12 : 12.0000
 Size of doubly occupied block:             2 : 2.0000
 Size of singly occupied beta block:        0 : 0.0000
 Size of unoccupied block:                 14 : 14.0000
 Use scf_boys =     0 (Canonical)
                    1 (Boys)
                    2 (Pipek-Mezey)
                    3 (ER)
 Build new fock matrix
 I'm here
 I'm here
 Calling AOints...
 Job number = 22, Threshold = 1.00E-12
Integral type ranges set in mkLRange.C for JobNum: 22  <1-1|1-1>
Storing 4338.82% of integrals
 done.
 E(SCF): disk=    -11.467574791507 current=    -11.467574791507 diff=   0.000e+00
 SCF   energy in the final basis set = -11.4675747915
 Total energy in the final basis set = -11.4675747915
 DevKeyword Parameters: 
 1sf_heis_projection                   1
scf_corresponding_orbs                   1


 ========================================================
                       In SF-CAS-CI                      
 ========================================================
 DevKeyword Parameters: 
 1sf_heis_projection                   1
scf_corresponding_orbs                   1

 Forming orbitals for SF-CAS calculation.
NBas   : 28
NOrb   : 28
NDOcc  : 2
NSOcc  : 12
NDVir  : 14
ISpin  : 0
e_hf: -11.46757479
 Using OPT1 Orbitals: Favg | Favg | Favg 
 A/B mix in Doubly occupied F  : 0.50000000
 A/B mix in Singly occupied F  : 0.50000000
 A/B mix in Doubly unoccupied F: 0.50000000
 Max of F(beta)ds      : 5.339e-16
 Max of F(alpha)sv     : 1.845e-11
 Max of F(average)dv   : 1.345e-10
 Orbital Energies  (D):
    1    -0.91413113    -0.91413113
    2    -0.91412506    -0.91412506
 Orbital Energies  (S):
    3    -0.37248662    -0.37248662
    4    -0.35320276    -0.35320276
    5    -0.35133257    -0.35133257
    6    -0.15495337    -0.15495337
    7    -0.14591978    -0.14591978
    8    -0.13961558    -0.13961558
    9    -0.12924642    -0.12924642
   10    -0.12519009    -0.12519009
   11    -0.12462020    -0.12462020
   12    -0.11010546    -0.11010546
   13    -0.10590581    -0.10590581
   14    -0.09280805    -0.09280805
 Orbital Energies  (V):
   15     0.90681373     0.90681373
   16     0.94156513     0.94156513
   17     0.95609705     0.95609705
   18     0.98363657     0.98363657
   19     1.01040658     1.01040658
   20     1.01227727     1.01227727
   21     1.05520330     1.05520330
   22     1.07378090     1.07378090
   23     1.09807512     1.09807512
   24     1.14485706     1.14485706
   25     1.24449154     1.24449154
   26     1.27914222     1.27914222
   27     1.39985484     1.39985484
   28     1.39986091     1.39986091
 tr(Pa)     :   14.0000000000
 tr(Pb)     :    2.0000000000
 E(core) with new P : -39.07758588
 E(HF) with new P   : -11.46757479
 Difference in Ehf  :   1.0658e-14

 Number of spin flips: 1
 Use cas_local =    0 (Canonical)
                    1 (Boys)
                    2 (Pipek-Mezey)
                    3 (ER)
 Using Boys orbitals in casman
 
 
 
Calling Get_Boys in C++
 
 
 
Orbital 12 Variance 21.38457166
Orbital 9 Variance 22.19857425
Orbital 5 Variance 22.54246286
Orbital 8 Variance 23.31350398
Orbital 2 Variance 23.44972524
Orbital 3 Variance 23.53497586
Orbital 1 Variance 24.50838734
Orbital 6 Variance 26.68077918
Orbital 4 Variance 26.94300249
Orbital 11 Variance 27.47518675
Orbital 10 Variance 27.88750159
Orbital 7 Variance 30.01929759
          ***** NUMBER OF SADDLE POINTS SO FAR = 0 ******

Initially in boys_jacobi.C before sweep, get_boys, boysval = 62.453008
In BOYS_JACOBI SWEEPS for get_boys, ending in round     6  because max_diff = 4.401084e-07


---> BEGIN 2nd Der Calculation    ******  
Guessing MaxD =  20 and MinD = 10
in get_boys.C: p = 0 guessthresh  52.3503710909 numsofar 18 MinD 10
in get_boys.C: p = 1 guessthresh  51.8503710909 numsofar 18 MinD 10
in get_boys.C: p = 2 guessthresh  51.6003710909 numsofar 7 MinD 10
DimInGuess 7 mineval  51.3503710909 guessthresh  51.6003710909
round 0 sizeofsub 7 eval0 5.078891e+01 diffeval0 1.000498e+05 length_qM 1.110670e+00 thresh 1.000000e-08
round 1 sizeofsub 8 eval0 5.022011e+01 diffeval0 5.688030e-01 length_qM 1.345662e-01 thresh 1.000000e-08
round 2 sizeofsub 9 eval0 5.021997e+01 diffeval0 1.416282e-04 length_qM 1.480610e-02 thresh 1.000000e-08
round 3 sizeofsub 10 eval0 5.021993e+01 diffeval0 4.003359e-05 length_qM 7.330474e-03 thresh 1.000000e-08
round 4 sizeofsub 11 eval0 5.021993e+01 diffeval0 1.629540e-06 length_qM 5.539004e-03 thresh 1.000000e-08
round 5 sizeofsub 12 eval0 5.021993e+01 diffeval0 6.700990e-07 length_qM 1.459184e-03 thresh 1.000000e-08
round 6 sizeofsub 13 eval0 5.021993e+01 diffeval0 8.533065e-08 length_qM 1.630524e-04 thresh 1.000000e-08
round 7 sizeofsub 14 eval0 5.021993e+01 diffeval0 1.446665e-09 length_qM 2.617956e-04 thresh 1.000000e-08
round 8 sizeofsub 15 eval0 5.021993e+01 diffeval0 3.398760e-09 length_qM 1.004735e-04 thresh 1.000000e-08
round 9 sizeofsub 16 eval0 5.021993e+01 diffeval0 6.177103e-10 length_qM 1.641582e-05 thresh 1.000000e-08
round 10 sizeofsub 17 eval0 5.021993e+01 diffeval0 3.576162e-11 length_qM 2.624248e-05 thresh 1.000000e-08
round 11 sizeofsub 18 eval0 5.021993e+01 diffeval0 8.988366e-12 length_qM 8.509162e-07 thresh 1.000000e-08
Converged to smallest eigenvalue: eval0 5.021993e+01

Success!!! No Negative Eigenvalues: Ending Get Boys in C++ ...Bye Bye
Orbital 12 Variance 2.74566426
Orbital 11 Variance 2.75332537
Orbital 10 Variance 2.75521922
Orbital 5 Variance 2.76570643
Orbital 6 Variance 2.76760483
Orbital 9 Variance 2.77147175
Orbital 4 Variance 2.77228067
Orbital 3 Variance 2.77372334
Orbital 7 Variance 2.77409936
Orbital 2 Variance 2.77464832
Orbital 8 Variance 2.77520792
Orbital 1 Variance 2.77599793
EXECUTING ORTHO_FUNC DESTRUCTOR

 Dimensions of orbital sub-spaces:    
 Number Hole Orbs:Alpha:Beta:       2    2    2
 Number Active Orbs:Alpha:Beta:    12   11    1
 Number Part Orbs:Alpha:Beta:      14    0    0

 Dimensions in SF-RAS-hp calculation: 
 Number of active space determinants:  144
 Number of hole space determinants:    1608
 Number of part space determinants:    11256
 Number of hole-part determinants:     130060
 Total 1x space:                       13008
 Total singles space:                  143068
 REM_MEM_TOT: 2000
 Memory Used: 0
 Memory Left: 2000
 Memory Need: 2
 Constructing 1e MO integrals
 Form (P|Q)**(-1/2)...
 Job number = 66, Threshold = 1.00E-12
Integral type ranges set in mkLRange.C for JobNum: 66  <2-7|2-7>
Symmetry turned off temporarily
Storing 4338.82% of integrals
Total number of integrals generated =           19965
Symmetry turned back on
 Forming (pq|P)...
 Forming Active-Active (aa|P) integrals...

 Entering first-index batching code with I1Strt =    3 batch size =   12
 Job number = 65, Threshold = 1.00E-12
Integral type ranges set in mkLRange.C for JobNum: 65  <1-1|2-7>
Symmetry turned off temporarily
Storing 4338.82% of integrals
Total number of integrals generated =           57222
Symmetry turned back on
 Forming Active-Active B integrals...
 Contracting B matrices to form 2e integrals. 
 Forming 2J-K over o,v with exact integrals
 Calling AOints... Job number = 22, Threshold = 1.00E-12
Integral type ranges set in mkLRange.C for JobNum: 22  <1-1|1-1>
Storing 4338.82% of integrals
Total number of integrals generated =           39239
 done.

 ROHF energy found on disk: 
 E(ROHF):         -11.46757479
-11.46757479
 First 10 Diagonal elements of H: 
 11111111111_ | 1___________        -10.94847812
 11111111111_ | _1__________        -10.92080746
 11111111111_ | __1_________        -11.07354433
 11111111111_ | ___1________        -10.94097884
 11111111111_ | ____1_______        -11.07109970
 11111111111_ | _____1______        -11.00002037
 11111111111_ | ______1_____        -10.93103835
 11111111111_ | _______1____        -11.07367512
 11111111111_ | ________1___        -10.95331434
 11111111111_ | _________1__        -10.99891225
 Fill S2_CAS Matrix...  done.
 Fill H_CAS Matrix...  done.

 Diagonalizing H_CAS 
 Entering cast_sfcas_to_sfcis
 ===================================================================
 Theory           State:          Energy (au)       (eV)       <S2>
 -------------------------------------------------------------------
 SF-CAS               1:       -11.5287380208     0.0000    30.0000
 SF-CAS               2:       -11.5266874866     0.0558    30.0000
 SF-CAS               3:       -11.5258164239     0.0795    30.0000
 SF-CAS               4:       -11.5247015946     0.1098    30.0000
 SF-CAS               5:       -11.5245372526     0.1143    30.0000
 SF-CAS               6:       -11.5243054724     0.1206    30.0000
 SF-CAS               7:       -11.5238745595     0.1323    30.0000
 SF-CAS               8:       -11.5238345628     0.1334    30.0000
 SF-CAS               9:       -11.5237419587     0.1360    30.0000
 SF-CAS              10:       -11.4701981723     1.5930    30.0000
 SF-CAS              11:       -11.4695243156     1.6113    30.0000
 SF-CAS              12:       -11.4675747915     1.6644    42.0000
 SF-CAS              13:       -11.2118945414     8.6218    30.0000
 SF-CAS              14:       -11.2094552479     8.6882    30.0000
 SF-CAS              15:       -11.2076033338     8.7386    30.0000
 SF-CAS              16:       -11.2043660925     8.8267    30.0000
 SF-CAS              17:       -11.2034234839     8.8523    30.0000
 SF-CAS              18:       -11.2026097539     8.8745    30.0000
 SF-CAS              19:       -11.2018010483     8.8965    30.0000
 SF-CAS              20:       -11.2004655470     8.9328    30.0000
 SF-CAS              21:       -11.1995576244     8.9575    30.0000
 SF-CAS              22:       -11.1901445345     9.2137    30.0000
 SF-CAS              23:       -11.1866964635     9.3075    30.0000
 SF-CAS              24:       -11.1835144833     9.3941    30.0000
 SF-CAS              25:       -11.1790588240     9.5153    30.0000
 SF-CAS              26:       -11.1723779706     9.6971    30.0000
 SF-CAS              27:       -11.1718531507     9.7114    30.0000
 SF-CAS              28:       -11.1656898014     9.8791    30.0000
 SF-CAS              29:       -11.1620054026     9.9794    30.0000
 SF-CAS              30:       -11.1582920336    10.0804    30.0000
 SF-CAS              31:       -11.1548277512    10.1747    30.0000
 SF-CAS              32:       -11.1464226759    10.4034    30.0000
 SF-CAS              33:       -11.1450077393    10.4419    30.0000
 SF-CAS              34:       -11.1444617379    10.4568    30.0000
 SF-CAS              35:       -11.1389271262    10.6074    30.0000
 SF-CAS              36:       -11.1335204545    10.7545    30.0000
 SF-CAS              37:       -11.1326079556    10.7794    30.0000
 SF-CAS              38:       -11.1296538022    10.8597    30.0000
 SF-CAS              39:       -11.1259930060    10.9594    30.0000
 SF-CAS              40:       -11.0870824611    12.0182    30.0000
 SF-CAS              41:       -11.0855393789    12.0602    30.0000
 SF-CAS              42:       -11.0842503788    12.0952    30.0000
 SF-CAS              43:       -11.0832635219    12.1221    30.0000
 SF-CAS              44:       -11.0811954308    12.1784    30.0000
 SF-CAS              45:       -11.0808450238    12.1879    30.0000
 SF-CAS              46:       -11.0805307866    12.1965    30.0000
 SF-CAS              47:       -11.0792281474    12.2319    30.0000
 SF-CAS              48:       -11.0790264376    12.2374    30.0000
 SF-CAS              49:       -11.0780493825    12.2640    30.0000
 SF-CAS              50:       -11.0778192543    12.2702    30.0000
 SF-CAS              51:       -11.0771884011    12.2874    30.0000
 SF-CAS              52:       -11.0756173582    12.3302    30.0000
 SF-CAS              53:       -11.0753036892    12.3387    30.0000
 SF-CAS              54:       -11.0750757403    12.3449    30.0000
 SF-CAS              55:       -11.0740247830    12.3735    30.0000
 SF-CAS              56:       -11.0733663935    12.3914    30.0000
 SF-CAS              57:       -11.0700957068    12.4804    30.0000
 SF-CAS              58:       -11.0001243702    14.3844    30.0000
 SF-CAS              59:       -10.9971099861    14.4665    30.0000
 SF-CAS              60:       -10.9931803417    14.5734    30.0000
 SF-CAS              61:       -10.9876700243    14.7234    30.0000
 SF-CAS              62:       -10.9852652901    14.7888    30.0000
 SF-CAS              63:       -10.9799025665    14.9347    30.0000
 SF-CAS              64:       -10.9753826485    15.0577    30.0000
 SF-CAS              65:       -10.9732450026    15.1159    30.0000
 SF-CAS              66:       -10.9718400415    15.1541    30.0000
 SF-CAS              67:       -10.9684556920    15.2462    30.0000
 SF-CAS              68:       -10.9639892926    15.3677    30.0000
 SF-CAS              69:       -10.9612221845    15.4430    30.0000
 SF-CAS              70:       -10.9591586631    15.4992    30.0000
 SF-CAS              71:       -10.9556566504    15.5945    30.0000
 SF-CAS              72:       -10.9552248999    15.6062    30.0000
 SF-CAS              73:       -10.9542522486    15.6327    30.0000
 SF-CAS              74:       -10.9535243155    15.6525    30.0000
 SF-CAS              75:       -10.9515957846    15.7050    30.0000
 SF-CAS              76:       -10.9508755895    15.7246    30.0000
 SF-CAS              77:       -10.9494169351    15.7643    30.0000
 SF-CAS              78:       -10.9475914572    15.8140    30.0000
 SF-CAS              79:       -10.9446793005    15.8932    30.0000
 SF-CAS              80:       -10.9412276684    15.9871    30.0000
 SF-CAS              81:       -10.9386878756    16.0562    30.0000
 SF-CAS              82:       -10.9370120826    16.1018    30.0000
 SF-CAS              83:       -10.9355212812    16.1424    30.0000
 SF-CAS              84:       -10.9343845588    16.1733    30.0000
 SF-CAS              85:       -10.9336351765    16.1937    30.0000
 SF-CAS              86:       -10.9327862488    16.2168    30.0000
 SF-CAS              87:       -10.9312592801    16.2584    30.0000
 SF-CAS              88:       -10.9311077096    16.2625    30.0000
 SF-CAS              89:       -10.9286902019    16.3283    30.0000
 SF-CAS              90:       -10.9275015986    16.3606    30.0000
 SF-CAS              91:       -10.9259179044    16.4037    30.0000
 SF-CAS              92:       -10.9248987336    16.4315    30.0000
 SF-CAS              93:       -10.9237999924    16.4614    30.0000
 SF-CAS              94:       -10.9234692238    16.4704    30.0000
 SF-CAS              95:       -10.9207603501    16.5441    30.0000
 SF-CAS              96:       -10.9205445506    16.5499    30.0000
 SF-CAS              97:       -10.9199540508    16.5660    30.0000
 SF-CAS              98:       -10.9196481384    16.5743    30.0000
 SF-CAS              99:       -10.9174821986    16.6333    30.0000
 SF-CAS             100:       -10.9163315789    16.6646    30.0000
 SF-CAS             101:       -10.9159577237    16.6748    30.0000
 SF-CAS             102:       -10.9134672716    16.7425    30.0000
 SF-CAS             103:       -10.9102082118    16.8312    30.0000
 SF-CAS             104:       -10.9092780106    16.8565    30.0000
 SF-CAS             105:       -10.9079322037    16.8932    30.0000
 SF-CAS             106:       -10.9071480514    16.9145    30.0000
 SF-CAS             107:       -10.9064169017    16.9344    30.0000
 SF-CAS             108:       -10.9046536926    16.9824    30.0000
 SF-CAS             109:       -10.9029100547    17.0298    30.0000
 SF-CAS             110:       -10.9009349112    17.0836    30.0000
 SF-CAS             111:       -10.9002357726    17.1026    30.0000
 SF-CAS             112:       -10.8987300139    17.1436    30.0000
 SF-CAS             113:       -10.8961810053    17.2129    30.0000
 SF-CAS             114:       -10.8956408015    17.2276    30.0000
 SF-CAS             115:       -10.8910844999    17.3516    30.0000
 SF-CAS             116:       -10.8896372742    17.3910    30.0000
 SF-CAS             117:       -10.8841069605    17.5415    30.0000
 SF-CAS             118:       -10.8792289629    17.6742    30.0000
 SF-CAS             119:       -10.8765671629    17.7466    30.0000
 SF-CAS             120:       -10.8762071199    17.7564    30.0000
 SF-CAS             121:       -10.8748595021    17.7931    30.0000
 SF-CAS             122:       -10.8740266257    17.8158    30.0000
 SF-CAS             123:       -10.8725465044    17.8561    30.0000
 SF-CAS             124:       -10.8711122810    17.8951    30.0000
 SF-CAS             125:       -10.8697116784    17.9332    30.0000
 SF-CAS             126:       -10.8676541639    17.9892    30.0000
 SF-CAS             127:       -10.7234102107    21.9143    30.0000
 SF-CAS             128:       -10.7182305572    22.0552    30.0000
 SF-CAS             129:       -10.7161404135    22.1121    30.0000
 SF-CAS             130:       -10.7048178906    22.4202    30.0000
 SF-CAS             131:       -10.7013882387    22.5136    30.0000
 SF-CAS             132:       -10.6970242062    22.6323    30.0000
 SF-CAS             133:       -10.6913978696    22.7854    30.0000
 SF-CAS             134:       -10.6903362018    22.8143    30.0000
 SF-CAS             135:       -10.6843920560    22.9760    30.0000
 SF-CAS             136:       -10.6808414819    23.0727    30.0000
 SF-CAS             137:       -10.6795680495    23.1073    30.0000
 SF-CAS             138:       -10.6773497630    23.1677    30.0000
 SF-CAS             139:       -10.6735865537    23.2701    30.0000
 SF-CAS             140:       -10.6707705287    23.3467    30.0000
 SF-CAS             141:       -10.6664424477    23.4645    30.0000
 SF-CAS             142:       -10.6568675725    23.7250    30.0000
 SF-CAS             143:       -10.6546177712    23.7863    30.0000
 SF-CAS             144:       -10.6467622117    24.0000    30.0000
 ===================================================================

              Active Space Coefficients > 0.20
 -------------------------------------------------------------------
 State  1                       Configuration         Coeff.   <S^2>
 -------------------------------------------------------------------
                  11111111111_ | ___________1      -0.564694  31.000
                  1111111111_1 | __________1_      -0.399736  31.000
                  111111111_11 | _________1__       0.294796  31.000
                  1111111_1111 | _______1____       0.218987  31.000
                  11_111111111 | __1_________      -0.300145  31.000
 -------------------------------------------------------------------
 State  2                       Configuration         Coeff.   <S^2>
 -------------------------------------------------------------------
                  1111111111_1 | __________1_       0.501290  31.000
                  111111111_11 | _________1__       0.385018  31.000
                  111111_11111 | ______1_____       0.280797  31.000
                  1111_1111111 | ____1_______      -0.374471  31.000
                  1_1111111111 | _1__________       0.288586  31.000
                  _11111111111 | 1___________       0.206911  31.000
 -------------------------------------------------------------------
 State  3                       Configuration         Coeff.   <S^2>
 -------------------------------------------------------------------
                  11111111111_ | ___________1      -0.410113  31.000
                  111111111_11 | _________1__      -0.527052  31.000
                  11111111_111 | ________1___      -0.246917  31.000
                  11111_111111 | _____1______       0.315649  31.000
                  1111_1111111 | ____1_______      -0.219691  31.000
                  1_1111111111 | _1__________      -0.218127  31.000
 -------------------------------------------------------------------
 State  4                       Configuration         Coeff.   <S^2>
 -------------------------------------------------------------------
                  1111111111_1 | __________1_      -0.382535  31.000
                  1111111_1111 | _______1____      -0.272860  31.000
                  111111_11111 | ______1_____       0.214171  31.000
                  11111_111111 | _____1______       0.269035  31.000
                  1111_1111111 | ____1_______      -0.402765  31.000
                  11_111111111 | __1_________       0.329311  31.000
                  1_1111111111 | _1__________      -0.410146  31.000
 -------------------------------------------------------------------
 State  5                       Configuration         Coeff.   <S^2>
 -------------------------------------------------------------------
                  11111111111_ | ___________1       0.255624  31.000
                  111111_11111 | ______1_____       0.369127  31.000
                  11111_111111 | _____1______       0.491883  31.000
                  1111_1111111 | ____1_______       0.510808  31.000
 -------------------------------------------------------------------
 State  6                       Configuration         Coeff.   <S^2>
 -------------------------------------------------------------------
                  111111111_11 | _________1__      -0.329577  31.000
                  11111111_111 | ________1___       0.356387  31.000
                  11111_111111 | _____1______       0.410923  31.000
                  111_11111111 | ___1________      -0.310655  31.000
                  1_1111111111 | _1__________       0.525858  31.000
 -------------------------------------------------------------------
 State  7                       Configuration         Coeff.   <S^2>
 -------------------------------------------------------------------
                  11111111_111 | ________1___      -0.577897  31.000
                  1111111_1111 | _______1____       0.238775  31.000
                  111_11111111 | ___1________      -0.626093  31.000
 -------------------------------------------------------------------
 State  8                       Configuration         Coeff.   <S^2>
 -------------------------------------------------------------------
                  11111111_111 | ________1___      -0.250927  31.000
                  1111111_1111 | _______1____      -0.602900  31.000
                  11_111111111 | __1_________      -0.572654  31.000
 -------------------------------------------------------------------
 State  9                       Configuration         Coeff.   <S^2>
 -------------------------------------------------------------------
                  111111_11111 | ______1_____       0.546436  31.000
                  _11111111111 | 1___________      -0.714575  31.000
 -------------------------------------------------------------------
 State  10                      Configuration         Coeff.   <S^2>
 -------------------------------------------------------------------
                  11111111111_ | ___________1       0.371814  31.000
                  11111111_111 | ________1___       0.231993  31.000
                  1111111_1111 | _______1____       0.420606  31.000
                  1111_1111111 | ____1_______      -0.403590  31.000
                  111_11111111 | ___1________      -0.233150  31.000
                  11_111111111 | __1_________      -0.423984  31.000
                  1_1111111111 | _1__________      -0.233920  31.000
 -------------------------------------------------------------------
 State  11                      Configuration         Coeff.   <S^2>
 -------------------------------------------------------------------
                  1111111111_1 | __________1_       0.330934  31.000
                  111111111_11 | _________1__       0.342152  31.000
                  11111111_111 | ________1___       0.334920  31.000
                  111111_11111 | ______1_____      -0.375962  31.000
                  11111_111111 | _____1______       0.362927  31.000
                  111_11111111 | ___1________      -0.337340  31.000
                  1_1111111111 | _1__________      -0.351727  31.000
                  _11111111111 | 1___________      -0.375653  31.000
 -------------------------------------------------------------------
 State  12                      Configuration         Coeff.   <S^2>
 -------------------------------------------------------------------
                  11111111111_ | ___________1       0.288675  31.000
                  1111111111_1 | __________1_      -0.288675  31.000
                  111111111_11 | _________1__       0.288675  31.000
                  11111111_111 | ________1___      -0.288675  31.000
                  1111111_1111 | _______1____       0.288675  31.000
                  111111_11111 | ______1_____      -0.288675  31.000
                  11111_111111 | _____1______       0.288675  31.000
                  1111_1111111 | ____1_______      -0.288675  31.000
                  111_11111111 | ___1________       0.288675  31.000
                  11_111111111 | __1_________      -0.288675  31.000
                  1_1111111111 | _1__________       0.288675  31.000
                  _11111111111 | 1___________      -0.288675  31.000
 -------------------------------------------------------------------
 State  13                      Configuration         Coeff.   <S^2>
 -------------------------------------------------------------------
                  11111111111_ | __1_________      -0.247862  30.000
                  11111111111_ | ____1_______       0.278862  30.000
                  11111111111_ | _____1______       0.213231  30.000
                  11111111111_ | _______1____      -0.230040  30.000
                  11111111111_ | _________1__      -0.252298  30.000
                  1111111111_1 | ___1________       0.203546  30.000
                  1111111111_1 | ____1_______      -0.201818  30.000
                  1111111111_1 | ________1___      -0.203656  30.000
 -------------------------------------------------------------------
 State  14                      Configuration         Coeff.   <S^2>
 -------------------------------------------------------------------
                  111111111_11 | 1___________       0.257368  30.000
                  111111111_11 | ___1________      -0.228735  30.000
                  111111111_11 | _____1______      -0.264005  30.000
                  111111111_11 | ______1_____       0.250266  30.000
                  111111111_11 | ________1___       0.232501  30.000
                  111111111_11 | __________1_       0.223999  30.000
 -------------------------------------------------------------------
 State  15                      Configuration         Coeff.   <S^2>
 -------------------------------------------------------------------
                  1111111111_1 | ___________1       0.201249  30.000
                  1111_1111111 | __1_________      -0.239991  30.000
                  1111_1111111 | ____1_______      -0.206990  31.000
                  1111_1111111 | _______1____      -0.290659  30.000
                  1111_1111111 | ___________1       0.338675  30.000
                  11_111111111 | _______1____      -0.233428  30.000
                  11_111111111 | ___________1       0.236420  30.000
 -------------------------------------------------------------------
 State  16                      Configuration         Coeff.   <S^2>
 -------------------------------------------------------------------
                  1111111111_1 | ___1________      -0.222316  30.000
                  1111111111_1 | ________1___       0.228906  30.000
                  111111_11111 | 1___________       0.205025  30.000
                  1_1111111111 | ___1________       0.282531  30.000
                  1_1111111111 | ________1___      -0.277981  30.000
                  1_1111111111 | __________1_      -0.243981  30.000
 -------------------------------------------------------------------
 State  17                      Configuration         Coeff.   <S^2>
 -------------------------------------------------------------------
                  11111111111_ | _______1____       0.278894  30.000
                  1111111_1111 | ___________1       0.337586  30.000
                  1111_1111111 | __1_________       0.222517  30.000
                  11_111111111 | ____1_______       0.358681  30.000
                  11_111111111 | _______1____      -0.237471  30.000
                  11_111111111 | ___________1       0.279520  30.000
 -------------------------------------------------------------------
 State  18                      Configuration         Coeff.   <S^2>
 -------------------------------------------------------------------
                  111111_11111 | 1___________       0.207606  30.000
                  111111_11111 | _____1______      -0.358462  30.000
                  111111_11111 | ______1_____      -0.205346  31.000
                  111111_11111 | _________1__       0.370651  30.000
                  _11111111111 | 1___________       0.237491  31.000
                  _11111111111 | _____1______       0.385019  30.000
                  _11111111111 | ______1_____      -0.265401  30.000
                  _11111111111 | _________1__      -0.402373  30.000
 -------------------------------------------------------------------
 State  19                      Configuration         Coeff.   <S^2>
 -------------------------------------------------------------------
                  11111111111_ | __1_________      -0.206014  30.000
                  1111111111_1 | _1__________      -0.250430  30.000
                  111111111_11 | 1___________      -0.216791  30.000
                  111111111_11 | _____1______       0.235044  30.000
                  111111111_11 | ______1_____      -0.236243  30.000
                  1111111_1111 | ____1_______       0.229018  30.000
                  111_11111111 | ________1___      -0.211867  30.000
 -------------------------------------------------------------------
 State  20                      Configuration         Coeff.   <S^2>
 -------------------------------------------------------------------
                  11111111111_ | __1_________      -0.221364  30.000
                  1111111_1111 | ____1_______       0.217567  30.000
                  11111_111111 | 1___________       0.261144  30.000
                  11111_111111 | ______1_____       0.282785  30.000
                  11111_111111 | _________1__       0.304698  30.000
                  11_111111111 | ___________1       0.201111  30.000
 -------------------------------------------------------------------
 State  21                      Configuration         Coeff.   <S^2>
 -------------------------------------------------------------------
                  11111111_111 | _1__________      -0.369196  30.000
                  11111111_111 | ___1________      -0.246184  30.000
                  11111111_111 | ________1___      -0.224751  31.000
                  11111111_111 | __________1_       0.390678  30.000
                  111_11111111 | _1__________       0.366610  30.000
                  111_11111111 | ___1________      -0.235793  31.000
                  111_11111111 | ________1___      -0.273820  30.000
                  111_11111111 | __________1_      -0.416960  30.000
 -------------------------------------------------------------------
 State  22                      Configuration         Coeff.   <S^2>
 -------------------------------------------------------------------
                  11111111111_ | ________1___      -0.204414  30.000
                  11111111111_ | __________1_      -0.246686  30.000
                  11111_111111 | 1___________      -0.234593  30.000
                  11111_111111 | ______1_____      -0.223639  30.000
                  11111_111111 | _________1__      -0.206858  30.000
 -------------------------------------------------------------------
 State  23                      Configuration         Coeff.   <S^2>
 -------------------------------------------------------------------
                  11111111111_ | _____1______      -0.219397  30.000
                  11111111111_ | __________1_       0.219935  30.000
                  1111111111_1 | _________1__      -0.200061  30.000
 -------------------------------------------------------------------
 State  24                      Configuration         Coeff.   <S^2>
 -------------------------------------------------------------------
                  111111111_11 | __1_________      -0.224305  30.000
                  111111111_11 | ____1_______       0.235098  30.000
                  111111111_11 | _______1____      -0.254709  30.000
                  111111111_11 | ___________1       0.355626  30.000
                  11111_111111 | __1_________      -0.263132  30.000
                  11111_111111 | ____1_______       0.259540  30.000
                  11111_111111 | _______1____      -0.304305  30.000
                  11111_111111 | ___________1       0.365795  30.000
 -------------------------------------------------------------------
 State  25                      Configuration         Coeff.   <S^2>
 -------------------------------------------------------------------
                  11111111111_ | _____1______      -0.217841  30.000
                  11111111111_ | _________1__       0.205049  30.000
                  1111111111_1 | __1_________      -0.237145  30.000
                  1111111111_1 | ____1_______       0.290587  30.000
                  1111111111_1 | _______1____      -0.243713  30.000
                  1111111111_1 | ___________1       0.334794  30.000
 -------------------------------------------------------------------
 State  26                      Configuration         Coeff.   <S^2>
 -------------------------------------------------------------------
                  11111111_111 | 1___________      -0.288898  30.000
                  11111111_111 | _____1______       0.295148  30.000
                  11111111_111 | ______1_____      -0.273957  30.000
                  11111111_111 | _________1__      -0.418167  30.000
                  111_11111111 | 1___________       0.242792  30.000
                  111_11111111 | _____1______      -0.265213  30.000
                  111_11111111 | ______1_____       0.250106  30.000
                  111_11111111 | _________1__       0.358782  30.000
 -------------------------------------------------------------------
 State  27                      Configuration         Coeff.   <S^2>
 -------------------------------------------------------------------
                  111111111_11 | ___1________      -0.249857  30.000
                  111111111_11 | ________1___       0.255571  30.000
                  111111111_11 | __________1_       0.223043  30.000
                  11111_111111 | ___________1       0.225564  30.000
                  1111_1111111 | ________1___       0.200662  30.000
                  1111_1111111 | __________1_       0.289558  30.000
 -------------------------------------------------------------------
 State  28                      Configuration         Coeff.   <S^2>
 -------------------------------------------------------------------
                  111111111_11 | _______1____       0.212368  30.000
                  111111111_11 | ___________1      -0.280462  30.000
                  _11111111111 | ___________1      -0.200448  30.000
 -------------------------------------------------------------------
 State  29                      Configuration         Coeff.   <S^2>
 -------------------------------------------------------------------
                  11111111111_ | __________1_       0.207099  30.000
                  1111_1111111 | _________1__       0.206185  30.000
 -------------------------------------------------------------------
 State  30                      Configuration         Coeff.   <S^2>
 -------------------------------------------------------------------
                  1111111111_1 | _________1__      -0.234342  30.000
                  1111111_1111 | __________1_       0.206065  30.000
                  1111_1111111 | _1__________       0.204079  30.000
                  1111_1111111 | ___1________       0.200666  30.000
                  1111_1111111 | __________1_      -0.289723  30.000
 -------------------------------------------------------------------
 State  31                      Configuration         Coeff.   <S^2>
 -------------------------------------------------------------------
                  1111111_1111 | 1___________      -0.287062  30.000
                  1111111_1111 | _____1______       0.379805  30.000
                  1111111_1111 | ______1_____      -0.285439  30.000
                  1111111_1111 | _________1__      -0.327282  30.000
                  11_111111111 | 1___________      -0.230666  30.000
                  11_111111111 | _____1______       0.270364  30.000
                  11_111111111 | ______1_____      -0.218420  30.000
                  11_111111111 | _________1__      -0.279054  30.000
 -------------------------------------------------------------------
 State  32                      Configuration         Coeff.   <S^2>
 -------------------------------------------------------------------
                  11111111_111 | __1_________      -0.259279  30.000
                  11111111_111 | ____1_______       0.293842  30.000
                  11111111_111 | _______1____      -0.259691  30.000
                  11111111_111 | ___________1       0.314608  30.000
                  111_11111111 | __1_________       0.216379  30.000
                  111_11111111 | ____1_______      -0.255212  30.000
                  111_11111111 | _______1____       0.224929  30.000
                  111_11111111 | ___________1      -0.245000  30.000
 -------------------------------------------------------------------
 State  33                      Configuration         Coeff.   <S^2>
 -------------------------------------------------------------------
                  1_1111111111 | 1___________      -0.252581  30.000
                  1_1111111111 | _____1______       0.270169  30.000
                  1_1111111111 | ______1_____      -0.248648  30.000
                  1_1111111111 | _________1__      -0.302068  30.000
 -------------------------------------------------------------------
 State  34                      Configuration         Coeff.   <S^2>
 -------------------------------------------------------------------
                  111111_11111 | ___1________       0.231522  30.000
                  111111_11111 | ________1___      -0.224521  30.000
                  111111_11111 | __________1_      -0.250106  30.000
                  111111_11111 | ___________1       0.224404  30.000
                  _11111111111 | _1__________      -0.206736  30.000
                  _11111111111 | ___1________      -0.237578  30.000
                  _11111111111 | ________1___       0.255702  30.000
                  _11111111111 | __________1_       0.261285  30.000
 -------------------------------------------------------------------
 State  35                      Configuration         Coeff.   <S^2>
 -------------------------------------------------------------------
                  1111111_1111 | _1__________       0.251898  30.000
                  1111111_1111 | ___1________       0.266914  30.000
                  1111111_1111 | ________1___      -0.261113  30.000
                  1111111_1111 | __________1_      -0.309160  30.000
                  11_111111111 | _1__________       0.212551  30.000
                  11_111111111 | ___1________       0.216482  30.000
                  11_111111111 | ________1___      -0.219990  30.000
                  11_111111111 | __________1_      -0.251631  30.000
 -------------------------------------------------------------------
 State  36                      Configuration         Coeff.   <S^2>
 -------------------------------------------------------------------
                  111111_11111 | ___1________      -0.210589  30.000
                  111111_11111 | ________1___       0.203151  30.000
                  _11111111111 | __1_________       0.226980  30.000
                  _11111111111 | ____1_______      -0.204324  30.000
                  _11111111111 | _______1____       0.237728  30.000
                  _11111111111 | ___________1      -0.254698  30.000
 -------------------------------------------------------------------
 State  37                      Configuration         Coeff.   <S^2>
 -------------------------------------------------------------------
                  111111_11111 | _______1____      -0.206424  30.000
                  111111_11111 | ___________1       0.219326  30.000
                  1_1111111111 | __1_________       0.206371  30.000
                  1_1111111111 | ____1_______      -0.246447  30.000
                  1_1111111111 | _______1____       0.211017  30.000
                  1_1111111111 | ___________1      -0.235368  30.000
 -------------------------------------------------------------------
 State  38                      Configuration         Coeff.   <S^2>
 -------------------------------------------------------------------
                  111111_11111 | ___1________      -0.206202  30.000
                  11111_111111 | _1__________       0.227214  30.000
                  11111_111111 | ___1________       0.272877  30.000
                  11111_111111 | ________1___      -0.270333  30.000
                  11111_111111 | __________1_      -0.252453  30.000
                  11_111111111 | _1__________       0.209348  30.000
                  11_111111111 | ___1________       0.214517  30.000
                  11_111111111 | ________1___      -0.221402  30.000
                  11_111111111 | __________1_      -0.255689  30.000
 -------------------------------------------------------------------
 State  39                      Configuration         Coeff.   <S^2>
 -------------------------------------------------------------------
                  1111111111_1 | 1___________       0.210788  30.000
                  1111111111_1 | _____1______      -0.215206  30.000
                  1111111111_1 | ______1_____       0.209201  30.000
                  1111111111_1 | _________1__       0.283608  30.000
                  1111_1111111 | _____1______       0.230460  30.000
                  1111_1111111 | _________1__      -0.213877  30.000
                  11_111111111 | 1___________      -0.203257  30.000
                  11_111111111 | _____1______       0.236387  30.000
                  11_111111111 | _________1__      -0.208017  30.000
                  1_1111111111 | 1___________      -0.232717  30.000
                  1_1111111111 | _____1______       0.225484  30.000
                  1_1111111111 | ______1_____      -0.233223  30.000
                  1_1111111111 | _________1__      -0.272578  30.000
 -------------------------------------------------------------------
 State  40                      Configuration         Coeff.   <S^2>
 -------------------------------------------------------------------
                  11111111111_ | ____1_______      -0.443734  30.000
                  11111111111_ | _______1____      -0.360331  30.000
                  1111111_1111 | __1_________      -0.226139  30.000
                  11_111111111 | ____1_______       0.299705  30.000
                  11_111111111 | _______1____       0.358999  30.000
 -------------------------------------------------------------------
 State  41                      Configuration         Coeff.   <S^2>
 -------------------------------------------------------------------
                  11111111111_ | __1_________      -0.213616  30.000
                  1111111111_1 | _1__________      -0.403216  30.000
                  1111111111_1 | ________1___      -0.273812  30.000
                  11111111_111 | ___1________      -0.232636  30.000
                  1111_1111111 | _______1____       0.286631  30.000
                  111_11111111 | _1__________       0.205178  30.000
                  111_11111111 | ________1___       0.285071  30.000
                  11_111111111 | ___________1       0.214176  30.000
 -------------------------------------------------------------------
 State  42                      Configuration         Coeff.   <S^2>
 -------------------------------------------------------------------
                  11111111111_ | __1_________       0.326557  30.000
                  1111111111_1 | _1__________      -0.324255  30.000
                  1111111111_1 | ________1___      -0.248980  30.000
                  111111111_11 | _____1______       0.256796  30.000
                  11111111_111 | _1__________       0.217409  30.000
                  1111111_1111 | ____1_______       0.236392  30.000
                  111111_11111 | 1___________       0.207671  30.000
                  111_11111111 | _1__________       0.230919  30.000
 -------------------------------------------------------------------
 State  43                      Configuration         Coeff.   <S^2>
 -------------------------------------------------------------------
                  1111111111_1 | ___1________      -0.551244  30.000
                  1111111111_1 | ________1___      -0.416838  30.000
                  11111111_111 | _1__________      -0.275526  30.000
                  1_1111111111 | ___1________       0.359662  30.000
                  1_1111111111 | ________1___       0.395557  30.000
 -------------------------------------------------------------------
 State  44                      Configuration         Coeff.   <S^2>
 -------------------------------------------------------------------
                  11111111111_ | __1_________      -0.372130  30.000
                  11111111111_ | _______1____       0.476730  30.000
                  1111111_1111 | __1_________      -0.237467  30.000
                  11111_111111 | _________1__       0.238206  30.000
                  1111_1111111 | __1_________      -0.252374  30.000
                  1111_1111111 | _______1____       0.290825  30.000
                  11_111111111 | ____1_______      -0.262619  30.000
 -------------------------------------------------------------------
 State  45                      Configuration         Coeff.   <S^2>
 -------------------------------------------------------------------
                  111111111_11 | 1___________       0.371024  30.000
                  111111111_11 | ______1_____      -0.483014  30.000
                  11111_111111 | 1___________       0.244247  30.000
                  11111_111111 | ______1_____      -0.351774  30.000
                  _11111111111 | _____1______      -0.291152  30.000
 -------------------------------------------------------------------
 State  46                      Configuration         Coeff.   <S^2>
 -------------------------------------------------------------------
                  111111111_11 | 1___________      -0.287182  30.000
                  111111111_11 | _____1______      -0.225339  30.000
                  1111111_1111 | ___________1      -0.290346  30.000
                  111111_11111 | _____1______      -0.241483  30.000
                  11111_111111 | 1___________      -0.242035  30.000
                  1111_1111111 | __1_________       0.311667  30.000
                  1111_1111111 | ___________1       0.348525  30.000
 -------------------------------------------------------------------
 State  47                      Configuration         Coeff.   <S^2>
 -------------------------------------------------------------------
                  1111111_1111 | __1_________       0.397334  30.000
                  1111111_1111 | ____1_______       0.296724  30.000
                  1111_1111111 | __1_________      -0.290998  30.000
                  1111_1111111 | _______1____       0.429589  30.000
                  11_111111111 | _______1____       0.417643  30.000
                  11_111111111 | ___________1       0.274540  30.000
 -------------------------------------------------------------------
 State  48                      Configuration         Coeff.   <S^2>
 -------------------------------------------------------------------
                  11111111_111 | _1__________       0.387554  30.000
                  11111111_111 | ___1________      -0.398210  30.000
                  111_11111111 | _1__________      -0.381723  30.000
                  111_11111111 | ________1___      -0.391261  30.000
                  1_1111111111 | ___1________       0.379799  30.000
                  1_1111111111 | ________1___       0.351378  30.000
 -------------------------------------------------------------------
 State  49                      Configuration         Coeff.   <S^2>
 -------------------------------------------------------------------
                  111111_11111 | 1___________       0.326818  30.000
                  111111_11111 | _____1______       0.255354  30.000
                  11111_111111 | 1___________      -0.242196  30.000
                  11111_111111 | ______1_____       0.408412  30.000
                  11_111111111 | ____1_______      -0.206597  30.000
                  _11111111111 | ______1_____      -0.343162  30.000
                  _11111111111 | _________1__       0.237199  30.000
[...]
    ------------------
    Open-shell weight:     0.000104
    Closed-shell weight:   0.999896


 Performing population analysis
 Mulliken Population Analysis of ROHF Active space
       Atom Z           1      2      3      4      5      6      7      8      9     10     11     12
          1 1      -0.0006 -0.0000  0.0000 -0.0151 -0.0155 -0.0000  0.0000 -0.0000 -0.0008  1.0487 -0.0155 -0.0013
          2 1       0.0000  0.0000  0.0000 -0.0154  1.0462  0.0000  0.0000  0.0000 -0.0000 -0.0155 -0.0153 -0.0000
          3 1      -0.0000  0.0000 -0.0000  1.0473 -0.0154 -0.0000  0.0000 -0.0000 -0.0000 -0.0151 -0.0154 -0.0013
          4 1      -0.0000  0.0000  0.0000 -0.0154 -0.0153  0.0000  0.0000  0.0000  0.0000 -0.0155  1.0461  0.0000
          5 1      -0.0000  1.0472 -0.0154 -0.0000  0.0000 -0.0012 -0.0000 -0.0153 -0.0000 -0.0000  0.0000 -0.0152
          6 1      -0.0000 -0.0153 -0.0154  0.0000  0.0000 -0.0000  0.0000  1.0462 -0.0000 -0.0000  0.0000 -0.0156
          7 1       0.0000 -0.0152 -0.0154 -0.0013 -0.0000 -0.0017 -0.0000 -0.0155  0.0000 -0.0013  0.0000  1.0504
          8 1       0.0000 -0.0154  1.0462 -0.0000  0.0000  0.0000  0.0000 -0.0153  0.0000  0.0000  0.0000 -0.0155
          9 1      -0.0153 -0.0000  0.0000  0.0000  0.0000 -0.0155  1.0461  0.0000 -0.0153  0.0000  0.0000 -0.0000
         10 1      -0.0154 -0.0012 -0.0000 -0.0000  0.0000  1.0492 -0.0155 -0.0000 -0.0154  0.0000  0.0000 -0.0017
         11 1      -0.0153 -0.0000  0.0000  0.0000 -0.0000 -0.0154 -0.0153  0.0000  1.0468 -0.0007 -0.0000  0.0000
         12 1       1.0466 -0.0000 -0.0000 -0.0000 -0.0000 -0.0154 -0.0153  0.0000 -0.0153 -0.0005  0.0000  0.0000
         13 2       0.0000  0.0000  0.0000  0.0000  0.0000  0.0000  0.0000  0.0000  0.0000  0.0000  0.0000  0.0000
         14 2       0.0000  0.0000  0.0000  0.0000  0.0000  0.0000  0.0000  0.0000  0.0000  0.0000  0.0000  0.0000

 Primary Atoms
 MO   1 is on  12
 MO   2 is on   5
 MO   3 is on   8
 MO   4 is on   3
 MO   5 is on   2
 MO   6 is on  10
 MO   7 is on   9
 MO   8 is on   6
 MO   9 is on  11
 MO  10 is on   1
 MO  11 is on   4
 MO  12 is on   7
 Number of blocks found:   12
 Block    0 has     1 orbitals
 Block    1 has     1 orbitals
 Block    2 has     1 orbitals
 Block    3 has     1 orbitals
 Block    4 has     1 orbitals
 Block    5 has     1 orbitals
 Block    6 has     1 orbitals
 Block    7 has     1 orbitals
 Block    8 has     1 orbitals
 Block    9 has     1 orbitals
 Block   10 has     1 orbitals
 Block   11 has     1 orbitals

 State Energies
      1 =   0.00000000 cm-1
      2 = 450.04022623 cm-1
      3 = 641.21638682 cm-1
      4 = 885.89314281 cm-1
      5 = 921.96204465 cm-1
      6 = 972.83192158 cm-1
      7 = 1067.40636989 cm-1
      8 = 1076.18461848 cm-1
      9 = 1096.50886431 cm-1
     10 = 12848.01159356 cm-1
     11 = 12995.90603806 cm-1
     12 = 13423.77711217 cm-1

 Projected eigenvectors
   0.2948   0.3850  -0.5271   0.0455   0.0159  -0.3296  -0.0136   0.1026  -0.0700  -0.1725   0.3422   0.2887
  -0.1913  -0.2808   0.1282  -0.2142  -0.3691  -0.0325   0.0290  -0.0413  -0.5464  -0.1900   0.3760   0.2887
   0.1026   0.1378   0.3156   0.2690   0.4919   0.4109   0.0283  -0.0807  -0.1016  -0.1697   0.3629   0.2887
  -0.1558  -0.2069   0.0741  -0.0993  -0.1407  -0.0456  -0.0439   0.0183   0.7146  -0.1893   0.3757   0.2887
  -0.0328   0.3745   0.2197   0.4028  -0.5108   0.0535  -0.0159  -0.0874   0.0479   0.4036  -0.0362   0.2887
   0.3001  -0.0688   0.1890  -0.3293   0.0813   0.0379  -0.1946   0.5727  -0.0191   0.4240  -0.0251   0.2887
  -0.5647  -0.1721  -0.4101   0.1961   0.2556   0.0671  -0.0289   0.1216  -0.0622   0.3718  -0.0174   0.2887
   0.2190  -0.1261  -0.0100  -0.2729   0.1718  -0.1628   0.2388  -0.6029   0.0349   0.4206  -0.0231   0.2887
  -0.0875   0.2886  -0.2181  -0.4101  -0.1321   0.5259   0.0951  -0.0533   0.0510  -0.2339  -0.3517   0.2887
   0.3997  -0.5013  -0.1943   0.3825  -0.1384   0.1422  -0.0462  -0.0041  -0.0010  -0.1995  -0.3309   0.2887
  -0.1347   0.0615   0.2469   0.0692   0.1188  -0.3564   0.5779   0.2509   0.0009  -0.2320  -0.3349   0.2887
  -0.1495   0.1086   0.1862  -0.0393   0.1559  -0.3107  -0.6261  -0.1964  -0.0491  -0.2332  -0.3373   0.2887


 Norms of projected eigenvectors (Projection #1 onto neutral determinant basis)
      State    0:   0.90787649
      State    1:   0.91077473
      State    2:   0.91245091
      State    3:   0.91358378
      State    4:   0.91412713
      State    5:   0.91442694
      State    6:   0.91479147
      State    7:   0.91504150
      State    8:   0.91497805
      State    9:   0.99547149
      State   10:   0.99660399
      State   11:   1.00000000

 Projected eigenvectors (local high-spin)
   0.2948   0.3850  -0.5271   0.0455   0.0159  -0.3296  -0.0136   0.1026  -0.0700  -0.1725   0.3422   0.2887
  -0.1913  -0.2808   0.1282  -0.2142  -0.3691  -0.0325   0.0290  -0.0413  -0.5464  -0.1900   0.3760   0.2887
   0.1026   0.1378   0.3156   0.2690   0.4919   0.4109   0.0283  -0.0807  -0.1016  -0.1697   0.3629   0.2887
  -0.1558  -0.2069   0.0741  -0.0993  -0.1407  -0.0456  -0.0439   0.0183   0.7146  -0.1893   0.3757   0.2887
  -0.0328   0.3745   0.2197   0.4028  -0.5108   0.0535  -0.0159  -0.0874   0.0479   0.4036  -0.0362   0.2887
   0.3001  -0.0688   0.1890  -0.3293   0.0813   0.0379  -0.1946   0.5727  -0.0191   0.4240  -0.0251   0.2887
  -0.5647  -0.1721  -0.4101   0.1961   0.2556   0.0671  -0.0289   0.1216  -0.0622   0.3718  -0.0174   0.2887
   0.2190  -0.1261  -0.0100  -0.2729   0.1718  -0.1628   0.2388  -0.6029   0.0349   0.4206  -0.0231   0.2887
  -0.0875   0.2886  -0.2181  -0.4101  -0.1321   0.5259   0.0951  -0.0533   0.0510  -0.2339  -0.3517   0.2887
   0.3997  -0.5013  -0.1943   0.3825  -0.1384   0.1422  -0.0462  -0.0041  -0.0010  -0.1995  -0.3309   0.2887
  -0.1347   0.0615   0.2469   0.0692   0.1188  -0.3564   0.5779   0.2509   0.0009  -0.2320  -0.3349   0.2887
  -0.1495   0.1086   0.1862  -0.0393   0.1559  -0.3107  -0.6261  -0.1964  -0.0491  -0.2332  -0.3373   0.2887


 Norms of projected eigenvectors (Projection #2 onto local high-spin states)
      State    0:   0.90787649
      State    1:   0.91077473
      State    2:   0.91245091
      State    3:   0.91358378
      State    4:   0.91412713
      State    5:   0.91442694
      State    6:   0.91479147
      State    7:   0.91504150
      State    8:   0.91497805
      State    9:   0.99547149
      State   10:   0.99660399
      State   11:   1.00000000

 Overlap of projected eigenvectors
   8.2424e-01   5.9900e-05   1.9133e-04   3.0340e-04  -9.4291e-04  -3.4788e-04  -7.6467e-05  -3.6899e-04  -3.7474e-05   5.6852e-04   1.2702e-04  -5.5626e-15
   5.9900e-05   8.2951e-01   2.1841e-04  -7.1576e-04  -3.6167e-04  -4.8407e-04   2.4570e-05  -7.2751e-05   1.1237e-04   5.6562e-04  -3.0334e-04   4.9923e-15
   1.9133e-04   2.1841e-04   8.3257e-01  -3.8731e-04  -2.2626e-04   7.3691e-04   9.9999e-05  -4.3124e-04  -2.3592e-05   1.4338e-04   4.6493e-04   6.9017e-15
   3.0340e-04  -7.1576e-04  -3.8731e-04   8.3464e-01   1.3723e-04  -6.3654e-05  -6.1573e-05  -4.4795e-05   9.5030e-05  -2.0543e-04  -2.8787e-04  -1.2961e-15
  -9.4291e-04  -3.6167e-04  -2.2626e-04   1.3723e-04   8.3563e-01   3.6777e-04   1.2423e-05   1.2497e-04   5.5407e-05   7.4527e-04   2.4200e-04   4.5064e-15
  -3.4788e-04  -4.8407e-04   7.3691e-04  -6.3654e-05   3.6777e-04   8.3618e-01   1.2471e-04  -1.5330e-04   6.2115e-05  -1.9469e-04  -1.1280e-03   2.7484e-15
  -7.6467e-05   2.4570e-05   9.9999e-05  -6.1573e-05   1.2423e-05   1.2471e-04   8.3684e-01  -9.6615e-05   7.7699e-05  -7.7509e-06  -1.6364e-05  -4.8741e-15
  -3.6899e-04  -7.2751e-05  -4.3124e-04  -4.4795e-05   1.2497e-04  -1.5330e-04  -9.6615e-05   8.3730e-01   5.2087e-05   4.0811e-04   2.0041e-05  -4.6282e-16
  -3.7474e-05   1.1237e-04  -2.3592e-05   9.5030e-05   5.5407e-05   6.2115e-05   7.7699e-05   5.2087e-05   8.3718e-01   9.9577e-05  -1.8730e-04  -7.8668e-16
   5.6852e-04   5.6562e-04   1.4338e-04  -2.0543e-04   7.4527e-04  -1.9469e-04  -7.7509e-06   4.0811e-04   9.9577e-05   9.9096e-01   6.8709e-05   2.2012e-16
   1.2702e-04  -3.0334e-04   4.6493e-04  -2.8787e-04   2.4200e-04  -1.1280e-03  -1.6364e-05   2.0041e-05  -1.8730e-04   6.8709e-05   9.9322e-01  -3.6154e-15
  -5.5626e-15   4.9923e-15   6.9017e-15  -1.2961e-15   4.5064e-15   2.7484e-15  -4.8741e-15  -4.6282e-16  -7.8668e-16   2.2012e-16  -3.6154e-15   1.0000e+00


 Effective Hamiltonian
   1.5856e-02   1.4374e-02   1.3159e-02   1.4118e-02   7.5953e-05   7.7699e-05   1.5912e-03   7.1993e-05  -8.2250e-05   9.1579e-05   9.8179e-04   8.4721e-04
   1.4374e-02   1.8604e-02   1.4275e-02   1.3841e-02  -9.9782e-06  -8.7522e-06  -4.1756e-05   1.0289e-05  -1.0664e-05   1.0634e-05   5.8140e-05   5.9909e-05
   1.3159e-02   1.4275e-02   1.7625e-02   1.4114e-02   2.3600e-05   4.6651e-05   1.4841e-03   3.3398e-04  -8.4274e-06   9.8189e-06   4.8867e-05   5.0233e-05
   1.4118e-02   1.3841e-02   1.4114e-02   1.8970e-02  -3.2608e-06  -1.8022e-07  -2.9931e-06   8.4626e-06  -9.9461e-06   8.5966e-06   6.9126e-05   4.9257e-05
   7.5953e-05  -9.9782e-06   2.3600e-05  -3.2608e-06   1.7493e-02   1.4218e-02   1.3200e-02   1.4330e-02   9.3377e-05   1.5865e-03   7.3729e-05   8.1772e-05
   7.7699e-05  -8.7522e-06   4.6651e-05  -1.8022e-07   1.4218e-02   1.8585e-02   1.4443e-02   1.3850e-02  -8.3421e-06  -3.3265e-05   1.0088e-06  -7.0526e-06
   1.5912e-03  -4.1756e-05   1.4841e-03  -2.9931e-06   1.3200e-02   1.4443e-02   1.4603e-02   1.3854e-02   6.7362e-05   1.7917e-03   1.3201e-04   4.1848e-05
   7.1993e-05   1.0289e-05   3.3398e-04   8.4626e-06   1.4330e-02   1.3850e-02   1.3854e-02   1.8736e-02  -4.9801e-06  -2.8684e-05   1.7093e-06   1.1964e-07
  -8.2250e-05  -1.0664e-05  -8.4274e-06  -9.9461e-06   9.3377e-05  -8.3421e-06   6.7362e-05  -4.9801e-06   1.8510e-02   1.4276e-02   1.4209e-02   1.4132e-02
   9.1579e-05   1.0634e-05   9.8189e-06   8.5966e-06   1.5865e-03  -3.3265e-05   1.7917e-03  -2.8684e-05   1.4276e-02   1.5643e-02   1.3812e-02   1.3997e-02
   9.8179e-04   5.8140e-05   4.8867e-05   6.9126e-05   7.3729e-05   1.0088e-06   1.3201e-04   1.7093e-06   1.4209e-02   1.3812e-02   1.8281e-02   1.3495e-02
   8.4721e-04   5.9909e-05   5.0233e-05   4.9257e-05   8.1772e-05  -7.0526e-06   4.1848e-05   1.1964e-07   1.4132e-02   1.3997e-02   1.3495e-02   1.8416e-02


 Energies of Heff (should be the same)
      1 =   0.00000000 cm-1
      2 = 450.04022623 cm-1
      3 = 641.21638682 cm-1
      4 = 885.89314281 cm-1
      5 = 921.96204465 cm-1
      6 = 972.83192158 cm-1
      7 = 1067.40636989 cm-1
      8 = 1076.18461848 cm-1
      9 = 1096.50886431 cm-1
     10 = 12848.01159356 cm-1
     11 = 12995.90603806 cm-1
     12 = 13423.77711217 cm-1

 Exchange coupling constants:
   	H = J * Sa * Sb 
   		or
   	H = -2J' * Sa * Sb 
        1
        1
        1
        1
        1
        1
        1
        1
        1
        1
        1
        1

 J( 0, 1) =          6309.608606  : J'( 0, 1) =         -3154.804303  (cm-1)
 J( 0, 2) =          5776.344653  : J'( 0, 2) =         -2888.172326  (cm-1)
 J( 0, 3) =          6197.199412  : J'( 0, 3) =         -3098.599706  (cm-1)
 J( 0, 4) =            33.339578  : J'( 0, 4) =           -16.669789  (cm-1)
 J( 0, 5) =            34.105721  : J'( 0, 5) =           -17.052861  (cm-1)
 J( 0, 6) =           698.471817  : J'( 0, 6) =          -349.235908  (cm-1)
 J( 0, 7) =            31.601240  : J'( 0, 7) =           -15.800620  (cm-1)
 J( 0, 8) =           -36.103382  : J'( 0, 8) =            18.051691  (cm-1)
 J( 0, 9) =            40.198733  : J'( 0, 9) =           -20.099367  (cm-1)
 J( 0,10) =           430.957731  : J'( 0,10) =          -215.478866  (cm-1)
 J( 0,11) =           371.881417  : J'( 0,11) =          -185.940709  (cm-1)
 J( 1, 2) =          6266.188641  : J'( 1, 2) =         -3133.094321  (cm-1)
 J( 1, 3) =          6075.694138  : J'( 1, 3) =         -3037.847069  (cm-1)
 J( 1, 4) =            -4.379919  : J'( 1, 4) =             2.189960  (cm-1)
 J( 1, 5) =            -3.841783  : J'( 1, 5) =             1.920891  (cm-1)
 J( 1, 6) =           -18.328942  : J'( 1, 6) =             9.164471  (cm-1)
 J( 1, 7) =             4.516379  : J'( 1, 7) =            -2.258189  (cm-1)
 J( 1, 8) =            -4.680846  : J'( 1, 8) =             2.340423  (cm-1)
 J( 1, 9) =             4.667953  : J'( 1, 9) =            -2.333977  (cm-1)
 J( 1,10) =            25.520697  : J'( 1,10) =           -12.760348  (cm-1)
 J( 1,11) =            26.296906  : J'( 1,11) =           -13.148453  (cm-1)
 J( 2, 3) =          6195.386522  : J'( 2, 3) =         -3097.693261  (cm-1)
 J( 2, 4) =            10.359322  : J'( 2, 4) =            -5.179661  (cm-1)
 J( 2, 5) =            20.477439  : J'( 2, 5) =           -10.238720  (cm-1)
 J( 2, 6) =           651.426684  : J'( 2, 6) =          -325.713342  (cm-1)
 J( 2, 7) =           146.600088  : J'( 2, 7) =           -73.300044  (cm-1)
 J( 2, 8) =            -3.699220  : J'( 2, 8) =             1.849610  (cm-1)
 J( 2, 9) =             4.310013  : J'( 2, 9) =            -2.155007  (cm-1)
 J( 2,10) =            21.449915  : J'( 2,10) =           -10.724958  (cm-1)
 J( 2,11) =            22.049949  : J'( 2,11) =           -11.024975  (cm-1)
 J( 3, 4) =            -1.431329  : J'( 3, 4) =             0.715664  (cm-1)
 J( 3, 5) =            -0.079109  : J'( 3, 5) =             0.039554  (cm-1)
 J( 3, 6) =            -1.313805  : J'( 3, 6) =             0.656903  (cm-1)
 J( 3, 7) =             3.714642  : J'( 3, 7) =            -1.857321  (cm-1)
 J( 3, 8) =            -4.365849  : J'( 3, 8) =             2.182925  (cm-1)
 J( 3, 9) =             3.773488  : J'( 3, 9) =            -1.886744  (cm-1)
 J( 3,10) =            30.342821  : J'( 3,10) =           -15.171410  (cm-1)
 J( 3,11) =            21.621369  : J'( 3,11) =           -10.810684  (cm-1)
 J( 4, 5) =          6241.038997  : J'( 4, 5) =         -3120.519498  (cm-1)
 J( 4, 6) =          5794.249910  : J'( 4, 6) =         -2897.124955  (cm-1)
 J( 4, 7) =          6290.289854  : J'( 4, 7) =         -3145.144927  (cm-1)
 J( 4, 8) =            40.987642  : J'( 4, 8) =           -20.493821  (cm-1)
 J( 4, 9) =           696.413705  : J'( 4, 9) =          -348.206852  (cm-1)
 J( 4,10) =            32.363253  : J'( 4,10) =           -16.181627  (cm-1)
 J( 4,11) =            35.893957  : J'( 4,11) =           -17.946978  (cm-1)
 J( 5, 6) =          6339.695897  : J'( 5, 6) =         -3169.847949  (cm-1)
 J( 5, 7) =          6079.405245  : J'( 5, 7) =         -3039.702623  (cm-1)
 J( 5, 8) =            -3.661755  : J'( 5, 8) =             1.830877  (cm-1)
 J( 5, 9) =           -14.601463  : J'( 5, 9) =             7.300731  (cm-1)
 J( 5,10) =             0.442830  : J'( 5,10) =            -0.221415  (cm-1)
 J( 5,11) =            -3.095735  : J'( 5,11) =             1.547868  (cm-1)
 J( 6, 7) =          6081.158576  : J'( 6, 7) =         -3040.579288  (cm-1)
 J( 6, 8) =            29.568602  : J'( 6, 8) =           -14.784301  (cm-1)
 J( 6, 9) =           786.462148  : J'( 6, 9) =          -393.231074  (cm-1)
 J( 6,10) =            57.947879  : J'( 6,10) =           -28.973939  (cm-1)
 J( 6,11) =            18.369216  : J'( 6,11) =            -9.184608  (cm-1)
 J( 7, 8) =            -2.186007  : J'( 7, 8) =             1.093003  (cm-1)
 J( 7, 9) =           -12.590935  : J'( 7, 9) =             6.295468  (cm-1)
 J( 7,10) =             0.750289  : J'( 7,10) =            -0.375144  (cm-1)
 J( 7,11) =             0.052514  : J'( 7,11) =            -0.026257  (cm-1)
 J( 8, 9) =          6266.257241  : J'( 8, 9) =         -3133.128621  (cm-1)
 J( 8,10) =          6237.024380  : J'( 8,10) =         -3118.512190  (cm-1)
 J( 8,11) =          6203.286469  : J'( 8,11) =         -3101.643234  (cm-1)
 J( 9,10) =          6062.631018  : J'( 9,10) =         -3031.315509  (cm-1)
 J( 9,11) =          6143.762442  : J'( 9,11) =         -3071.881221  (cm-1)
 J(10,11) =          5923.789168  : J'(10,11) =         -2961.894584  (cm-1)
 We have an S=1/2 lattice with   12 sites, let's directly diagonalize this Hamiltonian
 Building Heisenberg Hamiltonian

 Diagonalizing Heisenberg Hamiltonian
 Analysis of SCF Wavefunction

 --------------------------------------------------------------

                    Orbital Energies (a.u.)
 --------------------------------------------------------------

 Alpha MOs
 -- Occupied --
 -0.914  -0.914  -0.515  -0.515  -0.516  -0.517  -0.516  -0.517
 -0.515  -0.515  -0.515  -0.518  -0.516  -0.519
 -- Virtual --
  0.972   1.271   0.814   1.022   1.131   0.994   1.000   1.036
  1.055   1.046   1.035   1.038   1.083   0.984

 Beta MOs
 -- Occupied --
 -0.914  -0.914
 -- Virtual --
  0.148   0.150   0.147   0.148   0.147   0.151   0.148   0.148
  0.149   0.150   0.147   0.151   1.138   1.318   1.000   1.184
  1.228   1.160   1.165   1.203   1.192   1.190   1.177   1.209
  1.220   1.146
 --------------------------------------------------------------

          Ground-State Mulliken Net Atomic Charges

     Atom                 Charge (a.u.)
  ----------------------------------------
      1 H                     0.000046
      2 H                     0.000055
      3 H                    -0.000018
      4 H                    -0.000003
      5 H                    -0.000040
      6 H                     0.000041
      7 H                     0.000035
      8 H                    -0.000060
      9 H                     0.000073
     10 H                     0.000060
     11 H                    -0.000098
     12 H                    -0.000090
     13 He                    0.000000
     14 He                    0.000000
  ----------------------------------------
  Sum of atomic charges =    -0.000000

 -----------------------------------------------------------------
                    Cartesian Multipole Moments
 -----------------------------------------------------------------
    Charge (ESU x 10^10)
                -0.0000
    Dipole Moment (Debye)
         X       0.0002      Y      -0.0005      Z       0.0004
       Tot       0.0007
    Quadrupole Moments (Debye-Ang)
        XX     -19.7003     XY       0.0215     YY     -19.6795
        XZ      -0.0018     YZ      -0.0405     ZZ     -19.5104
    Octopole Moments (Debye-Ang^2)
       XXX     -19.5718    XXY     -31.5310    XYY      -4.8816
       YYY     -98.1850    XXZ     -22.8788    XYZ      -0.0214
       YYZ     -23.9049    XZZ      -4.1018    YZZ     -31.5980
       ZZZ     -70.7123
    Hexadecapole Moments (Debye-Ang^3)
      XXXX   -1643.4781   XXXY      -7.6010   XXYY    -547.8807
      XYYY      -7.2610   YYYY   -1634.0588   XXXZ       3.4497
      XXYZ    -213.5023   XYYZ       0.0904   YYYZ    -648.3617
      XXZZ    -491.0220   XYZZ      -2.2563   YYZZ    -497.5042
      XZZZ       4.4662   YZZZ    -643.9119   ZZZZ   -1318.2381
 -----------------------------------------------------------------
 JobOver = TRUE
Archival summary:
1\1\sinatra\SP\ROProcedureUnspecified\6-31G*\e212()\nmayhall\FriMar2413:22:142017FriMar2413:22:142017\0\\#,ROProcedureUnspecified,6-31G*,\\0,13\H\H,1,1.81065\H,1,1.81086,2,60.0452\H,2,1.81131,1,60.0237,3,-70.5123,0\H,1,2.6459,2,127.132,3,-28.852,0\H,5,1.81039,1,161.062,2,-128.385,0\H,5,1.81121,1,114.496,2,162.928,0\H,7,1.8112,5,60.0005,1,89.002,0\H,1,2.69731,2,121.355,3,139.819,0\H,9,1.8111,1,129.028,2,-176.133,0\H,10,1.8108,9,60.0291,1,-15.5086,0\H,9,1.81133,1,105.539,2,120.091,0\He,2,14.6354,1,126.128,3,67.0984,0\He,2,14.8639,1,126.242,3,-178.626,0\\HF=-11.4675748\\@

 Total job time:  0.25s(wall), 0.25s(cpu) 
 Fri Mar 24 13:22:14 2017

        *************************************************************
        *                                                           *
        *  Thank you very much for using Q-Chem.  Have a nice day.  *
        *                                                           *
        *************************************************************


*** MISSION COMPLETED -- STARFLEET OUT ***

