                  Welcome to Q-Chem
     A Quantum Leap Into The Future Of Chemistry


 Q-Chem 4.3, Q-Chem, Inc., Pleasanton, CA (2015)

 Y. Shao,  Z. Gan,  E. Epifanovsky,  A. T. B. Gilbert,  M. Wormit,  
 J. Kussmann,  A. W. Lange,  A. Behn,  J. Deng,  X. Feng,  D. Ghosh,  
 M. Goldey,  P. R. Horn,  L. D. Jacobson,  I. Kaliman,  R. Z. Khaliullin,  
 T. Kus,  A. Landau,  J. Liu,  E. I. Proynov,  Y. M. Rhee,  R. M. Richard,  
 M. A. Rohrdanz,  R. P. Steele,  E. J. Sundstrom,  H. L. Woodcock III,  
 P. M. Zimmerman,  D. Zuev,  B. Albrecht,  E. Alguire,  B. Austin,  
 S. A. Baeppler,  G. J. O. Beran,  Y. A. Bernard,  E. Berquist,  
 K. Brandhorst,  K. B. Bravaya,  S. T. Brown,  D. Casanova,  C.-M. Chang,  
 Y. Chen,  S. H. Chien,  K. D. Closser,  D. L. Crittenden,  M. Diedenhofen,  
 R. A. DiStasio Jr.,  H. Do,  A. D. Dutoi,  R. G. Edgar,  P.-T. Fang,  
 S. Fatehi,  Q. Feng,  L. Fusti-Molnar,  A. Ghysels,  
 A. Golubeva-Zadorozhnaya,  J. Gomes,  A. Gunina,  M. W. D. Hanson-Heine,  
 P. H. P. Harbach,  A. W. Hauser,  E. G. Hohenstein,  Z. C. Holden,  K. Hui,  
 T.-C. Jagau,  H. Ji,  B. Kaduk,  K. Khistyaev,  Jaehoon Kim,  Jihan Kim,  
 R. A. King,  P. Klunzinger,  D. Kosenkov,  T. Kowalczyk,  C. M. Krauter,  
 K. U. Lao,  A. Laurent,  K. V. Lawler,  S. Lehtola,  S. V. Levchenko,  
 C. Y. Lin,  Y.-S. Lin,  F. Liu,  E. Livshits,  R. C. Lochan,  A. Luenser,  
 P. Manohar,  S. F. Manzer,  S.-P. Mao,  N. Mardirossian,  A. V. Marenich,  
 L. A. Martinez-Martinez,  S. A. Maurer,  N. J. Mayhall,  K. Nanda,  
 C. M. Oana,  R. Olivares-Amaya,  D. P. O'Neill,  J. A. Parkhill,  
 T. M. Perrine,  R. Peverati,  P. A. Pieniazek,  F. Plasser,  A. Prociuk,  
 D. R. Rehn,  E. Rosta,  N. J. Russ,  N. Sergueev,  S. M. Sharada,  
 S. Sharma,  D. W. Small,  A. Sodt,  T. Stauch,  T. Stein,  D. Stuck,  
 Y.-C. Su,  A. J. W. Thom,  T. Tsuchimochi,  L. Vogt,  O. Vydrov,  T. Wang,  
 M. A. Watson,  J. Wenzel,  A. White,  C. F. Williams,  V. Vanovschi,  
 S. Yeganeh,  S. R. Yost,  Z.-Q. You,  I. Y. Zhang,  X. Zhang,  Y. Zhao,  
 B. R. Brooks,  G. K. L. Chan,  D. M. Chipman,  C. J. Cramer,  
 W. A. Goddard III,  M. S. Gordon,  W. J. Hehre,  A. Klamt,  
 H. F. Schaefer III,  M. W. Schmidt,  C. D. Sherrill,  D. G. Truhlar,  
 A. Warshel,  X. Xu,  A. Aspuru-Guzik,  R. Baer,  A. T. Bell,  N. A. Besley,  
 J.-D. Chai,  A. Dreuw,  B. D. Dunietz,  T. R. Furlani,  S. R. Gwaltney,  
 C.-P. Hsu,  Y. Jung,  J. Kong,  D. S. Lambrecht,  W. Liang,  C. Ochsenfeld,  
 V. A. Rassolov,  L. V. Slipchenko,  J. E. Subotnik,  T. Van Voorhis,  
 J. M. Herbert,  A. I. Krylov,  P. M. W. Gill,  M. Head-Gordon

 Contributors to earlier versions of Q-Chem not listed above: 
 R. D. Adamson,  J. Baker,  E. F. C. Byrd,  A. K. Chakraborty,  C.-L. Cheng,  
 H. Dachsel,  R. J. Doerksen,  G. Hawkins,  A. Heyden,  S. Hirata,  
 G. Kedziora,  F. J. Keil,  C. Kelley,  P. P. Korambath,  W. Kurlancheek,  
 A. M. Lee,  M. S. Lee,  D. Liotard,  I. Lotan,  P. E. Maslen,  N. Nair,  
 D. Neuhauser,  R. Olson,  B. Peters,  J. Ritchie,  N. E. Schultz,  
 N. Shenvi,  A. C. Simmonett,  K. S. Thanthiriwatte,  Q. Wu,  W. Zhang

 Please cite Q-Chem as follows:
 Y. Shao et al., Mol. Phys. 113, 184-215 (2015)
 DOI: 10.1080/00268976.2014.952696

 Q-Chem 4.3.0 for Intel X86 EM64T Linux

 Parts of Q-Chem use Armadillo 5.200.1 (Boston Tea Smuggler).
 http://arma.sourceforge.net/

 Q-Chem begins on Fri Mar 24 13:22:02 2017  


Host: 0

     Scratch files written to /home/nmayhall/scratch_qchem/h2//
 Dec1416 |home|nmayhall|qcSoftware|qchem|qchem.svn-casman|libmdc|qstr_RNUM -1
 Using version located at /home/nmayhall/qcSoftware/qchem/qchem.svn-casman/bin/qchem


Total Memory Limit in MB = 2000
Mega-Array Size in MB = 62

Checking the input file for inconsistencies... 	...done.

 Q-Chem warning in module /home/nmayhall/qcSoftware/qchem/qchem.svn-casman/forms1/BasisType.C, line 1452:

 You are not using the predefined 5D/6D in this basis set.

Finally everything over in PARseQInput

--------------------------------------------------------------
User input:
--------------------------------------------------------------
$rem
	exchange 		hf
	unrestricted		1
	basis			6-31g*	
	aux_basis		rimp2-vdz
	scf_guess		core	
	scf_convergence		8
	purecart		1111

	symmetry		0
	sym_ignore		1

	!correlation		sf-cas
	!cas_n_spin_flip		1
	!cas_local		1
	gui			2
$end

$development
	1sf_heis_projection	1
$end

$molecule
0 25
H	-0.73854	-0.54065	0.08576
H	-2.3134	-1.01748	-0.67017
H	-2.09582	0.65549	-0.01146
H	-2.21044	-0.75437	1.11995
H	1.47674	3.07203	0.09828
H	0.1685	3.66022	1.20546
H	0.18287	1.9348	0.65668
H	-0.21686	3.25528	-0.51743
H	3.4885	-0.87553	-0.06084
H	2.29649	0.48578	-0.00191
H	1.9396	-1.06676	0.85992
H	1.91588	-1.00965	-0.95022
He	10	10	10
He	-10	10	10
H	19.26146	19.45935	20.08576
H	17.6866	18.98252	19.32983
H	17.90418	20.65549	19.98854
H	17.78956	19.24563	21.11995
H	21.47674	23.07203	20.09828
H	20.1685	23.66022	21.20546
H	20.18287	21.9348	20.65668
H	19.78314	23.25528	19.48257
H	23.4885	19.12447	19.93916
H	22.29649	20.48578	19.99809
H	21.9396	18.93324	20.85992
H	21.91588	18.99035	19.04978
He	30	30	30
He	10	30	30
$end


--------------------------------------------------------------
 ----------------------------------------------------------------
             Standard Nuclear Orientation (Angstroms)
    I     Atom           X                Y                Z
 ----------------------------------------------------------------
    1      H      -0.7385400000    -0.5406500000     0.0857600000
    2      H      -2.3134000000    -1.0174800000    -0.6701700000
    3      H      -2.0958200000     0.6554900000    -0.0114600000
    4      H      -2.2104400000    -0.7543700000     1.1199500000
    5      H       1.4767400000     3.0720300000     0.0982800000
    6      H       0.1685000000     3.6602200000     1.2054600000
    7      H       0.1828700000     1.9348000000     0.6566800000
    8      H      -0.2168600000     3.2552800000    -0.5174300000
    9      H       3.4885000000    -0.8755300000    -0.0608400000
   10      H       2.2964900000     0.4857800000    -0.0019100000
   11      H       1.9396000000    -1.0667600000     0.8599200000
   12      H       1.9158800000    -1.0096500000    -0.9502200000
   13      He     10.0000000000    10.0000000000    10.0000000000
   14      He    -10.0000000000    10.0000000000    10.0000000000
   15      H      19.2614600000    19.4593500000    20.0857600000
   16      H      17.6866000000    18.9825200000    19.3298300000
   17      H      17.9041800000    20.6554900000    19.9885400000
   18      H      17.7895600000    19.2456300000    21.1199500000
   19      H      21.4767400000    23.0720300000    20.0982800000
   20      H      20.1685000000    23.6602200000    21.2054600000
   21      H      20.1828700000    21.9348000000    20.6566800000
   22      H      19.7831400000    23.2552800000    19.4825700000
   23      H      23.4885000000    19.1244700000    19.9391600000
   24      H      22.2964900000    20.4857800000    19.9980900000
   25      H      21.9396000000    18.9332400000    20.8599200000
   26      H      21.9158800000    18.9903500000    19.0497800000
   27      He     30.0000000000    30.0000000000    30.0000000000
   28      He     10.0000000000    30.0000000000    30.0000000000
 ----------------------------------------------------------------
 Nuclear Repulsion Energy =    30.0610417131 hartrees
 There are       28 alpha and        4 beta electrons
 Requested basis set is 6-31G(d)
 There are 56 shells and 56 basis functions

Total QAlloc Memory Limit   2000 MB
Mega-Array Size        61 MB
MEM_STATIC part        62 MB

finished with qalloc call

 Q-Chem warning in module /home/nmayhall/qcSoftware/qchem/qchem.svn-casman/forms1/BasisType.C, line 1375:

 SAD: How to set up polarization functions for non-Pople basis?

 Requested basis set is rimp2-VDZ
 There are 164 shells and 372 basis functions
 Job number = 2, Threshold = 1.00E-11
Integral type ranges set in mkLRange.C for JobNum: 2  <1-7|1-7>
Symmetry turned off temporarily
 Using the largest function pair in Schwarz integrals
Total number of integrals generated =            2028
Symmetry turned back on
 A cutoff of  1.0D-11 yielded    576 shell pairs
 There are       576 function pairs
 Job number = 11, Threshold = 1.00E-11
Integral type ranges set in mkLRange.C for JobNum: 11  <1-1|8-8>

 -------------------------------------------------------
 OpenMP Integral Computing Module                       
 Release: version 1.0, May 2013, Q-Chem Inc. Pittsburgh 
 -------------------------------------------------------
 Integral Job Info:
 Integral job number is                      11
 Integral operator is                         1
 short-range coefficients                     0
 long-range coefficients              100000000
 Omega coefficients                           0
 if combine SR and LR in K                    0
 Integral screening is                        0
 Integral computing path is                   2
 max size of driver memory is            800000
 size of driver memory is                 11780
 size of scratch memory is               800000
 max col of scratch BK array                289
 max len of scratch array in speh3            1
 max len of scratch index in speh4            2
 max int batch size is                      520
 min int batch size is                       52
 fixed nKL is                               520
 max L of basis functions is                  0
 order of int derivative is                   0
 number of shells is                         56
 number of basis is                          56
 number of cartesian basis is                56
 number of contracted shell pairs           576
 number of primitive shell pairs           1628
 maxK2 (contraction) of shell pair            9
 max number of K2 of shell pair               1
 max number of CS2 of shell pair            296
 max number of PS2 of shell pair            888
 mem total for path MDJ                    8568
 -------------------------------------------------------
 Smallest overlap matrix eigenvalue = 1.86E-01
 Multipole matrices computed through 2nd order

  Scale SEOQF with 1.000000e-03/1.000000e-03/1.000000e-03

 Standard Electronic Orientation quadrupole field applied
 Nucleus-field energy     =    -0.0000000003 hartrees
GuessMan:  IGuess = 1
 Guess MOs from core Hamiltonian diagonalization
scfman initvdwdat 
 An unrestricted Hartree-Fock SCF calculation will be
 performed using Pulay DIIS extrapolation
 SCF converges when DIIS error is below 1.0E-08
Finding J and K together
 Job number = 22, Threshold = 1.00E-11
Integral type ranges set in mkLRange.C for JobNum: 22  <1-1|1-1>
Storing 1094.13% of integrals
Total number of integrals generated =          152732
 MakeJK  time:  CPU       0.04 s  wall       0.04 s
Fock build time:  0.04 s (CPU) 0.04 s (wall)
DIIS Errors:  Max 3.69E-01 RMS 2.16E-02

Current DIIS subspace size = 1
REM_GRID_RESTART_DIIS = 0

 ---------------------------------------
  Cycle       Energy         DIIS Error
 ---------------------------------------
    1     -18.7875837291      2.16E-02  00000
Finding J and K together
 Job number = 22, Threshold = 1.00E-11
Integral type ranges set in mkLRange.C for JobNum: 22  <1-1|1-1>
Storing 1094.13% of integrals
Reusing in-core integrals buffer for job 22
 MakeJK  time:  CPU       0.01 s  wall       0.01 s
Fock build time:  0.01 s (CPU) 0.01 s (wall)
DIIS Errors:  Max 2.54E-01 RMS 1.37E-02

Current DIIS subspace size = 2
REM_GRID_RESTART_DIIS = 0

    2     -22.7325472953      1.37E-02  00000
Finding J and K together
 Job number = 22, Threshold = 1.00E-11
Integral type ranges set in mkLRange.C for JobNum: 22  <1-1|1-1>
Storing 1094.13% of integrals
Reusing in-core integrals buffer for job 22
 MakeJK  time:  CPU       0.01 s  wall       0.01 s
Fock build time:  0.01 s (CPU) 0.01 s (wall)
DIIS Errors:  Max 1.05E-01 RMS 5.84E-03

Current DIIS subspace size = 3
REM_GRID_RESTART_DIIS = 0

    3     -22.8701388717      5.84E-03  00000
Finding J and K together
 Job number = 22, Threshold = 1.00E-11
Integral type ranges set in mkLRange.C for JobNum: 22  <1-1|1-1>
Storing 1094.13% of integrals
Reusing in-core integrals buffer for job 22
 MakeJK  time:  CPU       0.01 s  wall       0.01 s
Fock build time:  0.01 s (CPU) 0.01 s (wall)
DIIS Errors:  Max 9.16E-03 RMS 6.31E-04

Current DIIS subspace size = 4
REM_GRID_RESTART_DIIS = 0

    4     -22.9296781775      6.31E-04  00000
Finding J and K together
 Job number = 22, Threshold = 1.00E-11
Integral type ranges set in mkLRange.C for JobNum: 22  <1-1|1-1>
Storing 1094.13% of integrals
Reusing in-core integrals buffer for job 22
 MakeJK  time:  CPU       0.01 s  wall       0.01 s
Fock build time:  0.01 s (CPU) 0.01 s (wall)
DIIS Errors:  Max 1.19E-04 RMS 6.56E-06

Current DIIS subspace size = 5
REM_GRID_RESTART_DIIS = 0

    5     -22.9349004805      6.56E-06  00000
Finding J and K together
 Job number = 22, Threshold = 1.00E-11
Integral type ranges set in mkLRange.C for JobNum: 22  <1-1|1-1>
Storing 1094.13% of integrals
Reusing in-core integrals buffer for job 22
 MakeJK  time:  CPU       0.01 s  wall       0.01 s
Fock build time:  0.01 s (CPU) 0.01 s (wall)
DIIS Errors:  Max 1.66E-05 RMS 8.88E-07

Current DIIS subspace size = 6
REM_GRID_RESTART_DIIS = 0

    6     -22.9351142410      8.88E-07  00000
Finding J and K together
 Job number = 22, Threshold = 1.00E-11
Integral type ranges set in mkLRange.C for JobNum: 22  <1-1|1-1>
Storing 1094.13% of integrals
Reusing in-core integrals buffer for job 22
 MakeJK  time:  CPU       0.01 s  wall       0.01 s
Fock build time:  0.01 s (CPU) 0.01 s (wall)
DIIS Errors:  Max 1.16E-06 RMS 5.92E-08

Current DIIS subspace size = 7
REM_GRID_RESTART_DIIS = 0

    7     -22.9351431524      5.92E-08  00000
Finding J and K together
 Job number = 22, Threshold = 1.00E-11
Integral type ranges set in mkLRange.C for JobNum: 22  <1-1|1-1>
Storing 1094.13% of integrals
Reusing in-core integrals buffer for job 22
 MakeJK  time:  CPU       0.01 s  wall       0.01 s
Fock build time:  0.01 s (CPU) 0.01 s (wall)
DIIS Errors:  Max 1.87E-07 RMS 9.90E-09

Current DIIS subspace size = 8
REM_GRID_RESTART_DIIS = 0

    8     -22.9351490634      9.90E-09  00000 Convergence criterion met
 ---------------------------------------
 <S^2> = 156.0000
 SCF time:  CPU 0.12 s  wall 0.12 s
 SCF   energy in the final basis set = -22.9351490634
 Total energy in the final basis set = -22.9351490634
Symmetry turned off temporarily
 Analysis of SCF Wavefunction

 --------------------------------------------------------------

                    Orbital Energies (a.u.)
 --------------------------------------------------------------

 Alpha MOs
 -- Occupied --
 -0.914  -0.914  -0.914  -0.914  -0.716  -0.716  -0.698  -0.698
 -0.697  -0.697  -0.480  -0.480  -0.471  -0.471  -0.465  -0.465
 -0.456  -0.456  -0.453  -0.453  -0.452  -0.452  -0.441  -0.441
 -0.438  -0.438  -0.427  -0.427
 -- Virtual --
  0.814   0.814   0.853   0.853   0.868   0.868   0.899   0.899
  0.927   0.927   0.929   0.929   0.973   0.973   0.992   0.992
  1.017   1.017   1.057   1.057   1.158   1.158   1.194   1.194
  1.400   1.400   1.400   1.400

 Beta MOs
 -- Occupied --
 -0.914  -0.914  -0.914  -0.914
 -- Virtual --
 -0.057  -0.057  -0.033  -0.033  -0.031  -0.031   0.128   0.128
  0.139   0.139   0.146   0.146   0.159   0.159   0.166   0.166
  0.167   0.167   0.189   0.189   0.195   0.195   0.212   0.212
  1.043   1.043   1.071   1.071   1.084   1.084   1.107   1.107
  1.130   1.130   1.132   1.132   1.171   1.171   1.188   1.188
  1.210   1.210   1.259   1.259   1.354   1.354   1.387   1.387
  1.400   1.400   1.400   1.400
 --------------------------------------------------------------

          Ground-State Mulliken Net Atomic Charges

     Atom                 Charge (a.u.)    Spin (a.u.)
  --------------------------------------------------------
      1 H                     0.000046       0.999954
      2 H                     0.000055       0.999945
      3 H                    -0.000018       1.000018
      4 H                    -0.000003       1.000003
      5 H                    -0.000040       1.000040
      6 H                     0.000041       0.999959
      7 H                     0.000035       0.999965
      8 H                    -0.000060       1.000060
      9 H                     0.000073       0.999927
     10 H                     0.000060       0.999940
     11 H                    -0.000098       1.000098
     12 H                    -0.000090       1.000090
     13 He                    0.000000      -0.000000
     14 He                    0.000000       0.000000
     15 H                     0.000046       0.999954
     16 H                     0.000055       0.999945
     17 H                    -0.000018       1.000018
     18 H                    -0.000003       1.000003
     19 H                    -0.000040       1.000040
     20 H                     0.000041       0.999959
     21 H                     0.000035       0.999965
     22 H                    -0.000060       1.000060
     23 H                     0.000073       0.999927
     24 H                     0.000060       0.999940
     25 H                    -0.000098       1.000098
     26 H                    -0.000090       1.000090
     27 He                    0.000000       0.000000
     28 He                    0.000000       0.000000
  --------------------------------------------------------
  Sum of atomic charges =    -0.000000
  Sum of spin   charges =    24.000000

 -----------------------------------------------------------------
                    Cartesian Multipole Moments
 -----------------------------------------------------------------
    Charge (ESU x 10^10)
                -0.0000
    Dipole Moment (Debye)
         X       0.0004      Y      -0.0010      Z       0.0008
       Tot       0.0013
    Quadrupole Moments (Debye-Ang)
        XX     -39.3929     XY       0.0370     YY     -39.3784
        XZ       0.0083     YZ      -0.0826     ZZ     -39.0046
    Octopole Moments (Debye-Ang^2)
       XXX   -1220.9313    XXY    -456.2503    XYY    -402.8065
       YYY   -1377.7229    XXZ    -439.5217    XYZ      -0.4163
       YYZ    -443.2470    XZZ    -398.0849    YZZ    -454.8953
       ZZZ   -1311.5639
    Hexadecapole Moments (Debye-Ang^3)
      XXXX  -52127.2530   XXXY  -25912.3575   XXYY  -18274.5202
      XYYY  -25870.8573   YYYY  -58369.2327   XXXZ  -25391.9591
      XXYZ   -9394.2340   XYYZ   -8467.1520   YYYZ  -28367.1220
      XXZZ  -17738.9207   XYZZ   -8544.6739   YYZZ  -18957.1760
      XZZZ  -25054.8483   YZZZ  -28053.2054   ZZZZ  -55105.4767
 -----------------------------------------------------------------
 JobOver = TRUE
Archival summary:
1\1\sinatra\SP\HF\6-31G*\e424(É)\nmayhall\FriMar2413:22:022017FriMar2413:22:022017\0\\#,HF,6-31G*,\\0,25\H\H,1,1.81065\H,1,1.81086,2,60.0452\H,2,1.81131,1,60.0237,3,-70.5123,0\H,1,2.6459,2,127.132,3,-28.852,0\H,5,1.81039,1,161.062,2,-128.385,0\H,5,1.81121,1,114.496,2,162.928,0\H,7,1.8112,5,60.0005,1,89.002,0\H,1,2.69731,2,121.355,3,139.819,0\H,9,1.8111,1,129.028,2,-176.133,0\H,10,1.8108,9,60.0291,1,-15.5086,0\H,9,1.81133,1,105.539,2,120.091,0\He,2,14.6354,1,126.128,3,67.0984,0\He,2,14.8639,1,126.242,3,-178.626,0\He,10,15.0604,9,146.885,1,143.257,0\H,15,14.6354,10,166.775,9,21.8999,0\H,16,1.81065,15,126.128,10,164.569,0\H,17,1.81086,16,60.0452,15,67.0984,0\H,16,1.81131,15,144.227,10,-108.015,0\H,17,2.6459,16,127.132,15,38.2464,0\H,20,1.81039,17,161.062,16,-128.385,0\H,20,1.81121,17,114.496,16,162.928,0\H,22,1.8112,20,60.0005,17,89.002,0\H,17,2.69731,16,121.355,15,-153.083,0\H,24,1.8111,17,129.028,16,-176.133,0\H,25,1.8108,24,60.0291,17,-15.5086,0\H,24,1.81133,17,105.539,16,120.091,0\He,16,14.8639,15,85.3686,10,32.098,0\\HF=-22.9351491\\@

 Total job time:  0.18s(wall), 0.18s(cpu) 
 Fri Mar 24 13:22:02 2017

        *************************************************************
        *                                                           *
        *  Thank you very much for using Q-Chem.  Have a nice day.  *
        *                                                           *
        *************************************************************


*** MISSION COMPLETED -- STARFLEET OUT ***

 
User input: 2 of 2 
 
                  Welcome to Q-Chem
     A Quantum Leap Into The Future Of Chemistry


 Q-Chem 4.3, Q-Chem, Inc., Pleasanton, CA (2015)

 Y. Shao,  Z. Gan,  E. Epifanovsky,  A. T. B. Gilbert,  M. Wormit,  
 J. Kussmann,  A. W. Lange,  A. Behn,  J. Deng,  X. Feng,  D. Ghosh,  
 M. Goldey,  P. R. Horn,  L. D. Jacobson,  I. Kaliman,  R. Z. Khaliullin,  
 T. Kus,  A. Landau,  J. Liu,  E. I. Proynov,  Y. M. Rhee,  R. M. Richard,  
 M. A. Rohrdanz,  R. P. Steele,  E. J. Sundstrom,  H. L. Woodcock III,  
 P. M. Zimmerman,  D. Zuev,  B. Albrecht,  E. Alguire,  B. Austin,  
 S. A. Baeppler,  G. J. O. Beran,  Y. A. Bernard,  E. Berquist,  
 K. Brandhorst,  K. B. Bravaya,  S. T. Brown,  D. Casanova,  C.-M. Chang,  
 Y. Chen,  S. H. Chien,  K. D. Closser,  D. L. Crittenden,  M. Diedenhofen,  
 R. A. DiStasio Jr.,  H. Do,  A. D. Dutoi,  R. G. Edgar,  P.-T. Fang,  
 S. Fatehi,  Q. Feng,  L. Fusti-Molnar,  A. Ghysels,  
 A. Golubeva-Zadorozhnaya,  J. Gomes,  A. Gunina,  M. W. D. Hanson-Heine,  
 P. H. P. Harbach,  A. W. Hauser,  E. G. Hohenstein,  Z. C. Holden,  K. Hui,  
 T.-C. Jagau,  H. Ji,  B. Kaduk,  K. Khistyaev,  Jaehoon Kim,  Jihan Kim,  
 R. A. King,  P. Klunzinger,  D. Kosenkov,  T. Kowalczyk,  C. M. Krauter,  
 K. U. Lao,  A. Laurent,  K. V. Lawler,  S. Lehtola,  S. V. Levchenko,  
 C. Y. Lin,  Y.-S. Lin,  F. Liu,  E. Livshits,  R. C. Lochan,  A. Luenser,  
 P. Manohar,  S. F. Manzer,  S.-P. Mao,  N. Mardirossian,  A. V. Marenich,  
 L. A. Martinez-Martinez,  S. A. Maurer,  N. J. Mayhall,  K. Nanda,  
 C. M. Oana,  R. Olivares-Amaya,  D. P. O'Neill,  J. A. Parkhill,  
 T. M. Perrine,  R. Peverati,  P. A. Pieniazek,  F. Plasser,  A. Prociuk,  
 D. R. Rehn,  E. Rosta,  N. J. Russ,  N. Sergueev,  S. M. Sharada,  
 S. Sharma,  D. W. Small,  A. Sodt,  T. Stauch,  T. Stein,  D. Stuck,  
 Y.-C. Su,  A. J. W. Thom,  T. Tsuchimochi,  L. Vogt,  O. Vydrov,  T. Wang,  
 M. A. Watson,  J. Wenzel,  A. White,  C. F. Williams,  V. Vanovschi,  
 S. Yeganeh,  S. R. Yost,  Z.-Q. You,  I. Y. Zhang,  X. Zhang,  Y. Zhao,  
 B. R. Brooks,  G. K. L. Chan,  D. M. Chipman,  C. J. Cramer,  
 W. A. Goddard III,  M. S. Gordon,  W. J. Hehre,  A. Klamt,  
 H. F. Schaefer III,  M. W. Schmidt,  C. D. Sherrill,  D. G. Truhlar,  
 A. Warshel,  X. Xu,  A. Aspuru-Guzik,  R. Baer,  A. T. Bell,  N. A. Besley,  
 J.-D. Chai,  A. Dreuw,  B. D. Dunietz,  T. R. Furlani,  S. R. Gwaltney,  
 C.-P. Hsu,  Y. Jung,  J. Kong,  D. S. Lambrecht,  W. Liang,  C. Ochsenfeld,  
 V. A. Rassolov,  L. V. Slipchenko,  J. E. Subotnik,  T. Van Voorhis,  
 J. M. Herbert,  A. I. Krylov,  P. M. W. Gill,  M. Head-Gordon

 Contributors to earlier versions of Q-Chem not listed above: 
 R. D. Adamson,  J. Baker,  E. F. C. Byrd,  A. K. Chakraborty,  C.-L. Cheng,  
 H. Dachsel,  R. J. Doerksen,  G. Hawkins,  A. Heyden,  S. Hirata,  
 G. Kedziora,  F. J. Keil,  C. Kelley,  P. P. Korambath,  W. Kurlancheek,  
 A. M. Lee,  M. S. Lee,  D. Liotard,  I. Lotan,  P. E. Maslen,  N. Nair,  
 D. Neuhauser,  R. Olson,  B. Peters,  J. Ritchie,  N. E. Schultz,  
 N. Shenvi,  A. C. Simmonett,  K. S. Thanthiriwatte,  Q. Wu,  W. Zhang

 Please cite Q-Chem as follows:
 Y. Shao et al., Mol. Phys. 113, 184-215 (2015)
 DOI: 10.1080/00268976.2014.952696

 Q-Chem 4.3.0 for Intel X86 EM64T Linux

 Parts of Q-Chem use Armadillo 5.200.1 (Boston Tea Smuggler).
 http://arma.sourceforge.net/

 Q-Chem begins on Fri Mar 24 13:22:02 2017  


Host: 0

     Scratch files written to /home/nmayhall/scratch_qchem/h2//
 Dec1416 |home|nmayhall|qcSoftware|qchem|qchem.svn-casman|libmdc|qstr_RNUM -1
 Using version located at /home/nmayhall/qcSoftware/qchem/qchem.svn-casman/bin/qchem

 Turning off symmetry for CASMAN

Total Memory Limit in MB = 2000
Mega-Array Size in MB = 62

Checking the input file for inconsistencies... 	...done.

 Q-Chem warning in module /home/nmayhall/qcSoftware/qchem/qchem.svn-casman/forms1/BasisType.C, line 1452:

 You are not using the predefined 5D/6D in this basis set.

Finally everything over in PARseQInput

--------------------------------------------------------------
User input:
--------------------------------------------------------------
$rem
	exchange 		hf
	unrestricted		0
	basis			6-31g*	
	aux_basis		rimp2-vdz
	scf_guess		read	
	scf_convergence		8
	purecart		1111

	symmetry		0
	sym_ignore		1

	correlation		sf-cas
	cas_n_spin_flip		1
	cas_local		1
	gui			2
$end

$development
	1sf_heis_projection	1
	scf_corresponding_orbs	1
        heisenberg_n_roots	0
$end

$molecule
read
$end

--------------------------------------------------------------
 ----------------------------------------------------------------
             Standard Nuclear Orientation (Angstroms)
    I     Atom           X                Y                Z
 ----------------------------------------------------------------
    1      H      -0.7385400000    -0.5406500000     0.0857600000
    2      H      -2.3134000000    -1.0174800000    -0.6701700000
    3      H      -2.0958200000     0.6554900000    -0.0114600000
    4      H      -2.2104400000    -0.7543700000     1.1199500000
    5      H       1.4767400000     3.0720300000     0.0982800000
    6      H       0.1685000000     3.6602200000     1.2054600000
    7      H       0.1828700000     1.9348000000     0.6566800000
    8      H      -0.2168600000     3.2552800000    -0.5174300000
    9      H       3.4885000000    -0.8755300000    -0.0608400000
   10      H       2.2964900000     0.4857800000    -0.0019100000
   11      H       1.9396000000    -1.0667600000     0.8599200000
   12      H       1.9158800000    -1.0096500000    -0.9502200000
   13      He     10.0000000000    10.0000000000    10.0000000000
   14      He    -10.0000000000    10.0000000000    10.0000000000
   15      H      19.2614600000    19.4593500000    20.0857600000
   16      H      17.6866000000    18.9825200000    19.3298300000
   17      H      17.9041800000    20.6554900000    19.9885400000
   18      H      17.7895600000    19.2456300000    21.1199500000
   19      H      21.4767400000    23.0720300000    20.0982800000
   20      H      20.1685000000    23.6602200000    21.2054600000
   21      H      20.1828700000    21.9348000000    20.6566800000
   22      H      19.7831400000    23.2552800000    19.4825700000
   23      H      23.4885000000    19.1244700000    19.9391600000
   24      H      22.2964900000    20.4857800000    19.9980900000
   25      H      21.9396000000    18.9332400000    20.8599200000
   26      H      21.9158800000    18.9903500000    19.0497800000
   27      He     30.0000000000    30.0000000000    30.0000000000
   28      He     10.0000000000    30.0000000000    30.0000000000
 ----------------------------------------------------------------
 Nuclear Repulsion Energy =    30.0610417131 hartrees
 There are       28 alpha and        4 beta electrons
 Requested basis set is 6-31G(d)
 There are 56 shells and 56 basis functions

Total QAlloc Memory Limit   2000 MB
Mega-Array Size        61 MB
MEM_STATIC part        62 MB

finished with qalloc call

 Q-Chem warning in module /home/nmayhall/qcSoftware/qchem/qchem.svn-casman/forms1/BasisType.C, line 1375:

 SAD: How to set up polarization functions for non-Pople basis?

 Requested basis set is rimp2-VDZ
 There are 164 shells and 372 basis functions
 Job number = 2, Threshold = 1.00E-12
Integral type ranges set in mkLRange.C for JobNum: 2  <1-7|1-7>
Symmetry turned off temporarily
 Using the largest function pair in Schwarz integrals
Total number of integrals generated =            2030
Symmetry turned back on
 A cutoff of  1.0D-12 yielded    578 shell pairs
 There are       578 function pairs
 Job number = 11, Threshold = 1.00E-12
Integral type ranges set in mkLRange.C for JobNum: 11  <1-1|8-8>

 -------------------------------------------------------
 OpenMP Integral Computing Module                       
 Release: version 1.0, May 2013, Q-Chem Inc. Pittsburgh 
 -------------------------------------------------------
 Integral Job Info:
 Integral job number is                      11
 Integral operator is                         1
 short-range coefficients                     0
 long-range coefficients              100000000
 Omega coefficients                           0
 if combine SR and LR in K                    0
 Integral screening is                        0
 Integral computing path is                   2
 max size of driver memory is            800000
 size of driver memory is                 11780
 size of scratch memory is               800000
 max col of scratch BK array                289
 max len of scratch array in speh3            1
 max len of scratch index in speh4            2
 max int batch size is                      520
 min int batch size is                       52
 fixed nKL is                               520
 max L of basis functions is                  0
 order of int derivative is                   0
 number of shells is                         56
 number of basis is                          56
 number of cartesian basis is                56
 number of contracted shell pairs           578
 number of primitive shell pairs           1638
 maxK2 (contraction) of shell pair            9
 max number of K2 of shell pair               1
 max number of CS2 of shell pair            296
 max number of PS2 of shell pair            888
 mem total for path MDJ                    8568
 -------------------------------------------------------
 Smallest overlap matrix eigenvalue = 1.86E-01
 Multipole matrices computed through 2nd order

  Scale SEOQF with 1.000000e-03/1.000000e-03/1.000000e-03

 Standard Electronic Orientation quadrupole field applied
 Nucleus-field energy     =    -0.0000000003 hartrees
GuessMan:  IGuess = 1000
 Guess MOs from SCF MO coefficient file
 Reading MOs from coefficient file
 Reading MOs from coefficient file
scfman initvdwdat 
 A restricted Hartree-Fock SCF calculation will be
 performed using Geometric Direct Minimization
 SCF converges when RMS gradient is below 1.0E-08
Finding J and K together
 Job number = 22, Threshold = 1.00E-12
Integral type ranges set in mkLRange.C for JobNum: 22  <1-1|1-1>
Storing 1086.58% of integrals
Total number of integrals generated =          156708
 MakeJK  time:  CPU       0.05 s  wall       0.05 s
Fock build time:  0.05 s (CPU) 0.05 s (wall)
 ---------------------------------------
  Cycle       Energy        RMS Gradient
 ---------------------------------------
    1     -22.9351495203      2.43E-04  00000 Normal BFGS step
Finding J and K together
 Job number = 22, Threshold = 1.00E-12
Integral type ranges set in mkLRange.C for JobNum: 22  <1-1|1-1>
Storing 1086.58% of integrals
Reusing in-core integrals buffer for job 22
 MakeJK  time:  CPU       0.01 s  wall       0.01 s
Fock build time:  0.01 s (CPU) 0.01 s (wall)
    2     -22.9351495831      1.93E-09  00000 Convergence criterion met
 ---------------------------------------
 SCF time:  CPU 0.07 s  wall 0.07 s
 Obtaining Corresponding orbitals

 Forming corresponding orbitals block-by-block...
 Size of singly occupied alpha block:      24 : 24.0000
 Size of doubly occupied block:             4 : 4.0000
 Size of singly occupied beta block:        0 : 0.0000
 Size of unoccupied block:                 28 : 28.0000
 Use scf_boys =     0 (Canonical)
                    1 (Boys)
                    2 (Pipek-Mezey)
                    3 (ER)
 Build new fock matrix
 I'm here
 I'm here
 Calling AOints...
 Job number = 22, Threshold = 1.00E-12
Integral type ranges set in mkLRange.C for JobNum: 22  <1-1|1-1>
Storing 1086.58% of integrals
 done.
 E(SCF): disk=    -22.935149583131 current=    -22.935149583131 diff=  -2.132e-14
 SCF   energy in the final basis set = -22.9351495831
 Total energy in the final basis set = -22.9351495831
 DevKeyword Parameters: 
 1sf_heis_projection                   1
  heisenberg_n_roots                   0
scf_corresponding_orbs                   1


 ========================================================
                       In SF-CAS-CI                      
 ========================================================
 DevKeyword Parameters: 
 1sf_heis_projection                   1
  heisenberg_n_roots                   0
scf_corresponding_orbs                   1

 Forming orbitals for SF-CAS calculation.
NBas   : 56
NOrb   : 56
NDOcc  : 4
NSOcc  : 24
NDVir  : 28
ISpin  : 0
e_hf: -22.93514958
 Using OPT1 Orbitals: Favg | Favg | Favg 
 A/B mix in Doubly occupied F  : 0.50000000
 A/B mix in Singly occupied F  : 0.50000000
 A/B mix in Doubly unoccupied F: 0.50000000
 Max of F(beta)ds      : 9.762e-16
 Max of F(alpha)sv     : 1.569e-11
 Max of F(average)dv   : 1.112e-10
 Orbital Energies  (D):
    1    -0.91413117    -0.91413117
    2    -0.91412552    -0.91412552
    3    -0.91412508    -0.91412508
    4    -0.91412488    -0.91412488
 Orbital Energies  (S):
    5    -0.37248684    -0.37248684
    6    -0.37248623    -0.37248623
    7    -0.35320301    -0.35320301
    8    -0.35320240    -0.35320240
    9    -0.35133275    -0.35133275
   10    -0.35133215    -0.35133215
   11    -0.15495359    -0.15495359
   12    -0.15495298    -0.15495298
   13    -0.14591997    -0.14591997
   14    -0.14591936    -0.14591936
   15    -0.13961581    -0.13961581
   16    -0.13961521    -0.13961521
   17    -0.12924668    -0.12924668
   18    -0.12924606    -0.12924606
   19    -0.12519027    -0.12519027
   20    -0.12518966    -0.12518966
   21    -0.12462048    -0.12462048
   22    -0.12461986    -0.12461986
   23    -0.11010568    -0.11010568
   24    -0.11010508    -0.11010508
   25    -0.10590601    -0.10590601
   26    -0.10590540    -0.10590540
   27    -0.09280826    -0.09280826
   28    -0.09280764    -0.09280764
 Orbital Energies  (V):
   29     0.90681350     0.90681350
   30     0.90681412     0.90681412
   31     0.94156496     0.94156496
   32     0.94156556     0.94156556
   33     0.95609683     0.95609683
   34     0.95609743     0.95609743
   35     0.98363631     0.98363631
   36     0.98363693     0.98363693
   37     1.01040634     1.01040634
   38     1.01040696     1.01040696
   39     1.01227705     1.01227705
   40     1.01227766     1.01227766
   41     1.05520310     1.05520310
   42     1.05520370     1.05520370
   43     1.07378065     1.07378065
   44     1.07378128     1.07378128
   45     1.09807495     1.09807495
   46     1.09807555     1.09807555
   47     1.14485683     1.14485683
   48     1.14485744     1.14485744
   49     1.24449131     1.24449131
   50     1.24449192     1.24449192
   51     1.27914202     1.27914202
   52     1.27914263     1.27914263
   53     1.39985479     1.39985479
   54     1.39986045     1.39986045
   55     1.39986088     1.39986088
   56     1.39986109     1.39986109
 tr(Pa)     :   28.0000000000
 tr(Pb)     :    4.0000000000
 E(core) with new P : -86.29075779
 E(HF) with new P   : -22.93514958
 Difference in Ehf  :   2.1316e-14

 Number of spin flips: 1
 Use cas_local =    0 (Canonical)
                    1 (Boys)
                    2 (Pipek-Mezey)
                    3 (ER)
 Using Boys orbitals in casman
 
 
 
Calling Get_Boys in C++
 
 
 
Orbital 23 Variance 21.38456006
Orbital 24 Variance 21.38456248
Orbital 17 Variance 22.19852031
Orbital 18 Variance 22.19855044
Orbital 9 Variance 22.54242347
Orbital 10 Variance 22.54243343
Orbital 15 Variance 23.31318687
Orbital 16 Variance 23.31326942
Orbital 4 Variance 23.44974077
Orbital 3 Variance 23.44974481
Orbital 5 Variance 23.53491999
Orbital 6 Variance 23.53492174
Orbital 2 Variance 24.50839408
Orbital 1 Variance 24.50839444
Orbital 12 Variance 26.68074925
Orbital 11 Variance 26.68075403
Orbital 8 Variance 26.94301206
Orbital 7 Variance 26.94301315
Orbital 22 Variance 27.47517406
Orbital 21 Variance 27.47518039
Orbital 20 Variance 27.88749709
Orbital 19 Variance 27.88750204
Orbital 13 Variance 30.01896178
Orbital 14 Variance 30.01905291
          ***** NUMBER OF SADDLE POINTS SO FAR = 0 ******

Initially in boys_jacobi.C before sweep, get_boys, boysval = 53477.569868
In BOYS_JACOBI SWEEPS for get_boys, ending in round     6  because max_diff = 6.146776e-07


---> BEGIN 2nd Der Calculation    ******  
Guessing MaxD =  20 and MinD = 10
in get_boys.C: p = 0 guessthresh  52.3503711065 numsofar 36 MinD 10
in get_boys.C: p = 1 guessthresh  51.8503711065 numsofar 36 MinD 10
in get_boys.C: p = 2 guessthresh  51.6003711065 numsofar 14 MinD 10
in get_boys.C: p = 3 guessthresh  51.4753711065 numsofar 4 MinD 10
DimInGuess 4 mineval  51.3503711065 guessthresh  51.4753711065
round 0 sizeofsub 4 eval0 5.135037e+01 diffeval0 1.000504e+05 length_qM 1.247822e+00 thresh 1.000000e-08
round 1 sizeofsub 5 eval0 5.031636e+01 diffeval0 1.034010e+00 length_qM 4.136373e-01 thresh 1.000000e-08
round 2 sizeofsub 6 eval0 5.026404e+01 diffeval0 5.232482e-02 length_qM 9.723578e-02 thresh 1.000000e-08
round 3 sizeofsub 7 eval0 5.026197e+01 diffeval0 2.063047e-03 length_qM 2.936362e-01 thresh 1.000000e-08
round 4 sizeofsub 8 eval0 5.026049e+01 diffeval0 1.480200e-03 length_qM 1.225506e-01 thresh 1.000000e-08
round 5 sizeofsub 9 eval0 5.026021e+01 diffeval0 2.815664e-04 length_qM 6.554496e-03 thresh 1.000000e-08
round 6 sizeofsub 10 eval0 5.026016e+01 diffeval0 5.358493e-05 length_qM 3.481564e-02 thresh 1.000000e-08
round 7 sizeofsub 11 eval0 5.026015e+01 diffeval0 1.075907e-05 length_qM 1.004918e-03 thresh 1.000000e-08
round 8 sizeofsub 12 eval0 5.026015e+01 diffeval0 1.066360e-07 length_qM 2.751338e-03 thresh 1.000000e-08
round 9 sizeofsub 13 eval0 5.024350e+01 diffeval0 1.664376e-02 length_qM 1.813478e+00 thresh 1.000000e-08
round 10 sizeofsub 14 eval0 5.022018e+01 diffeval0 2.332454e-02 length_qM 3.349955e-02 thresh 1.000000e-08
round 11 sizeofsub 15 eval0 5.022012e+01 diffeval0 5.469703e-05 length_qM 1.002092e-02 thresh 1.000000e-08
round 12 sizeofsub 16 eval0 5.022000e+01 diffeval0 1.205518e-04 length_qM 7.821299e-02 thresh 1.000000e-08
round 13 sizeofsub 17 eval0 5.021993e+01 diffeval0 7.719181e-05 length_qM 3.469879e-03 thresh 1.000000e-08
round 14 sizeofsub 18 eval0 5.021993e+01 diffeval0 9.842223e-07 length_qM 1.369036e-03 thresh 1.000000e-08
round 15 sizeofsub 19 eval0 5.021993e+01 diffeval0 4.694318e-07 length_qM 4.088629e-03 thresh 1.000000e-08
round 16 sizeofsub 20 eval0 5.021993e+01 diffeval0 1.742514e-07 length_qM 1.168644e-04 thresh 1.000000e-08
round 17 sizeofsub 11 eval0 5.021992e+01 diffeval0 4.748557e-09 length_qM 1.349393e-04 thresh 1.000000e-08
round 18 sizeofsub 12 eval0 5.021992e+01 diffeval0 7.781857e-09 length_qM 2.567541e-04 thresh 1.000000e-08
round 19 sizeofsub 13 eval0 5.021992e+01 diffeval0 7.291447e-10 length_qM 5.141215e-05 thresh 1.000000e-08
round 20 sizeofsub 14 eval0 5.021992e+01 diffeval0 8.837020e-10 length_qM 4.908235e-05 thresh 1.000000e-08
round 21 sizeofsub 15 eval0 5.021992e+01 diffeval0 8.058976e-11 length_qM 2.135206e-05 thresh 1.000000e-08
round 22 sizeofsub 16 eval0 5.021992e+01 diffeval0 2.934541e-12 length_qM 5.938171e-07 thresh 1.000000e-08
Converged to smallest eigenvalue: eval0 5.021992e+01

Success!!! No Negative Eigenvalues: Ending Get Boys in C++ ...Bye Bye
Orbital 24 Variance 2.74566427
Orbital 23 Variance 2.74566427
Orbital 22 Variance 2.75332536
Orbital 21 Variance 2.75332536
Orbital 19 Variance 2.75521921
Orbital 20 Variance 2.75521921
Orbital 10 Variance 2.76570643
Orbital 9 Variance 2.76570643
Orbital 11 Variance 2.76760481
Orbital 12 Variance 2.76760482
Orbital 18 Variance 2.77147175
Orbital 17 Variance 2.77147176
Orbital 7 Variance 2.77228068
Orbital 8 Variance 2.77228069
Orbital 6 Variance 2.77372333
Orbital 5 Variance 2.77372334
Orbital 14 Variance 2.77409937
Orbital 13 Variance 2.77409938
Orbital 3 Variance 2.77464831
Orbital 4 Variance 2.77464832
Orbital 15 Variance 2.77520791
Orbital 16 Variance 2.77520793
Orbital 2 Variance 2.77599793
Orbital 1 Variance 2.77599794
EXECUTING ORTHO_FUNC DESTRUCTOR

 Dimensions of orbital sub-spaces:    
 Number Hole Orbs:Alpha:Beta:       4    4    4
 Number Active Orbs:Alpha:Beta:    24   23    1
 Number Part Orbs:Alpha:Beta:      28    0    0

 Dimensions in SF-RAS-hp calculation: 
 Number of active space determinants:  576
 Number of hole space determinants:    26592
 Number of part space determinants:    186144
 Number of hole-part determinants:     8660848
 Total 1x space:                       213312
 Total singles space:                  8874160
 REM_MEM_TOT: 2000
 Memory Used: 0
 Memory Left: 2000
 Memory Need: 18
 Constructing 1e MO integrals
 Form (P|Q)**(-1/2)...
 Job number = 66, Threshold = 1.00E-12
Integral type ranges set in mkLRange.C for JobNum: 66  <2-7|2-7>
Symmetry turned off temporarily
Storing 1086.58% of integrals
Total number of integrals generated =           79134
Symmetry turned back on
 Forming (pq|P)...
 Forming Active-Active (aa|P) integrals...

 Entering first-index batching code with I1Strt =    5 batch size =   24
 Job number = 65, Threshold = 1.00E-12
Integral type ranges set in mkLRange.C for JobNum: 65  <1-1|2-7>
Symmetry turned off temporarily
Storing 1086.58% of integrals
Total number of integrals generated =          228888
Symmetry turned back on
 Forming Active-Active B integrals...
 Contracting B matrices to form 2e integrals. 
 Forming 2J-K over o,v with exact integrals
 Calling AOints... Job number = 22, Threshold = 1.00E-12
Integral type ranges set in mkLRange.C for JobNum: 22  <1-1|1-1>
Storing 1086.58% of integrals
Total number of integrals generated =          156708
 done.

 ROHF energy found on disk: 
 E(ROHF):         -22.93514958
-22.93514958
 First 10 Diagonal elements of H: 
 11111111111111111111111_ | 1_______________________        -22.28643313
 11111111111111111111111_ | _1______________________        -22.41605304
 11111111111111111111111_ | __1_____________________        -22.28396908
 11111111111111111111111_ | ___1____________________        -22.38838232
 11111111111111111111111_ | ____1___________________        -22.28369895
 11111111111111111111111_ | _____1__________________        -22.54111907
 11111111111111111111111_ | ______1_________________        -22.28455381
 11111111111111111111111_ | _______1________________        -22.40855375
 11111111111111111111111_ | ________1_______________        -22.28169801
 11111111111111111111111_ | _________1______________        -22.53867446
 Fill S2_CAS Matrix...  done.
 Fill H_CAS Matrix...  done.

 Diagonalizing H_CAS 
 Entering cast_sfcas_to_sfcis
 ===================================================================
 Theory           State:          Energy (au)       (eV)       <S2>
 -------------------------------------------------------------------
 SF-CAS               1:       -22.9963127729     0.0000   132.0000
 SF-CAS               2:       -22.9963127616     0.0000   132.0000
 SF-CAS               3:       -22.9942622260     0.0558   132.0000
 SF-CAS               4:       -22.9942622138     0.0558   132.0000
 SF-CAS               5:       -22.9933911758     0.0795   132.0000
 SF-CAS               6:       -22.9933911679     0.0795   132.0000
 SF-CAS               7:       -22.9922763216     0.1098   132.0000
 SF-CAS               8:       -22.9922763009     0.1098   132.0000
 SF-CAS               9:       -22.9921119739     0.1143   132.0000
 SF-CAS              10:       -22.9921119694     0.1143   132.0000
 SF-CAS              11:       -22.9918801935     0.1206   132.0000
 SF-CAS              12:       -22.9918801817     0.1206   132.0000
 SF-CAS              13:       -22.9914492684     0.1323   132.0000
 SF-CAS              14:       -22.9914492667     0.1323   132.0000
 SF-CAS              15:       -22.9914092772     0.1334   132.0000
 SF-CAS              16:       -22.9914092521     0.1334   132.0000
 SF-CAS              17:       -22.9913166567     0.1360   132.0000
 SF-CAS              18:       -22.9913166314     0.1360   132.0000
 SF-CAS              19:       -22.9377729593     1.5930   132.0000
 SF-CAS              20:       -22.9377729564     1.5930   132.0000
 SF-CAS              21:       -22.9370990999     1.6113   132.0000
 SF-CAS              22:       -22.9370990989     1.6113   132.0000
 SF-CAS              23:       -22.9351495831     1.6644   132.2355
 SF-CAS              24:       -22.9351495831     1.6644   155.7645
 SF-CAS              25:       -22.6794692819     8.6218   132.0000
 SF-CAS              26:       -22.6794692617     8.6218   132.0000
 SF-CAS              27:       -22.6770299642     8.6882   132.0000
 SF-CAS              28:       -22.6770299587     8.6882   132.0000
 SF-CAS              29:       -22.6751780773     8.7386   132.0000
 SF-CAS              30:       -22.6751780650     8.7386   132.0000
 SF-CAS              31:       -22.6719408396     8.8267   132.0000
 SF-CAS              32:       -22.6719408192     8.8267   132.0000
 SF-CAS              33:       -22.6709982344     8.8523   132.0000
 SF-CAS              34:       -22.6709982166     8.8523   132.0000
 SF-CAS              35:       -22.6701844719     8.8745   132.0000
 SF-CAS              36:       -22.6701844404     8.8745   132.0000
 SF-CAS              37:       -22.6693757848     8.8965   132.0000
 SF-CAS              38:       -22.6693757626     8.8965   132.0000
 SF-CAS              39:       -22.6680402952     8.9328   132.0000
 SF-CAS              40:       -22.6680402790     8.9328   132.0000
 SF-CAS              41:       -22.6671323371     8.9575   132.0000
 SF-CAS              42:       -22.6671323250     8.9575   132.0000
 SF-CAS              43:       -22.6577193016     9.2137   132.0000
 SF-CAS              44:       -22.6577192912     9.2137   132.0000
 SF-CAS              45:       -22.6542712190     9.3075   132.0000
 SF-CAS              46:       -22.6542712093     9.3075   132.0000
 SF-CAS              47:       -22.6510891333     9.3941   132.0000
 SF-CAS              48:       -22.6510891142     9.3941   132.0000
 SF-CAS              49:       -22.6466335738     9.5153   132.0000
 SF-CAS              50:       -22.6466335669     9.5153   132.0000
 SF-CAS              51:       -22.6399526769     9.6971   132.0000
 SF-CAS              52:       -22.6399526750     9.6971   132.0000
 SF-CAS              53:       -22.6394278540     9.7114   132.0000
 SF-CAS              54:       -22.6394278389     9.7114   132.0000
 SF-CAS              55:       -22.6332644317     9.8791   132.0000
 SF-CAS              56:       -22.6332644219     9.8791   132.0000
 SF-CAS              57:       -22.6295801458     9.9794   132.0000
 SF-CAS              58:       -22.6295801288     9.9794   132.0000
 SF-CAS              59:       -22.6258667926    10.0804   132.0000
 SF-CAS              60:       -22.6258667658    10.0804   132.0000
 SF-CAS              61:       -22.6224025513    10.1747   132.0000
 SF-CAS              62:       -22.6224025112    10.1747   132.0000
 SF-CAS              63:       -22.6139972781    10.4034   132.0000
 SF-CAS              64:       -22.6139972749    10.4034   132.0000
 SF-CAS              65:       -22.6125824707    10.4419   132.0000
 SF-CAS              66:       -22.6125824405    10.4419   132.0000
 SF-CAS              67:       -22.6120362996    10.4568   132.0000
 SF-CAS              68:       -22.6120362735    10.4568   132.0000
 SF-CAS              69:       -22.6065018277    10.6074   132.0000
 SF-CAS              70:       -22.6065017961    10.6074   132.0000
 SF-CAS              71:       -22.6010950130    10.7545   132.0000
 SF-CAS              72:       -22.6010949953    10.7545   132.0000
 SF-CAS              73:       -22.6001825644    10.7794   132.0000
 SF-CAS              74:       -22.6001825584    10.7794   132.0000
 SF-CAS              75:       -22.5972284824    10.8597   132.0000
 SF-CAS              76:       -22.5972284702    10.8597   132.0000
 SF-CAS              77:       -22.5935678178    10.9594   132.0000
 SF-CAS              78:       -22.5935678041    10.9594   132.0000
 SF-CAS              79:       -22.5546572608    12.0182   132.0000
 SF-CAS              80:       -22.5546572470    12.0182   132.0000
 SF-CAS              81:       -22.5531141877    12.0602   132.0000
 SF-CAS              82:       -22.5531141853    12.0602   132.0000
 SF-CAS              83:       -22.5530530591    12.0618   132.0000
 SF-CAS              84:       -22.5528091520    12.0685   132.0000
 SF-CAS              85:       -22.5518251924    12.0952   132.0000
 SF-CAS              86:       -22.5518251826    12.0952   132.0000
 SF-CAS              87:       -22.5508383685    12.1221   132.0000
 SF-CAS              88:       -22.5508383521    12.1221   132.0000
 SF-CAS              89:       -22.5487702445    12.1784   132.0000
 SF-CAS              90:       -22.5487702251    12.1784   132.0000
 SF-CAS              91:       -22.5484198769    12.1879   132.0000
 SF-CAS              92:       -22.5484198565    12.1879   132.0000
 SF-CAS              93:       -22.5481055646    12.1965   132.0000
 SF-CAS              94:       -22.5481055512    12.1965   132.0000
 SF-CAS              95:       -22.5468029307    12.2319   132.0000
 SF-CAS              96:       -22.5468029222    12.2319   132.0000
 SF-CAS              97:       -22.5466012164    12.2374   132.0000
 SF-CAS              98:       -22.5466012156    12.2374   132.0000
 SF-CAS              99:       -22.5456241642    12.2640   132.0000
 SF-CAS             100:       -22.5456241517    12.2640   132.0000
 SF-CAS             101:       -22.5453940100    12.2702   132.0000
 SF-CAS             102:       -22.5453940040    12.2702   132.0000
 SF-CAS             103:       -22.5447631406    12.2874   132.0000
 SF-CAS             104:       -22.5447631238    12.2874   132.0000
 SF-CAS             105:       -22.5431920856    12.3302   132.0000
 SF-CAS             106:       -22.5431920738    12.3302   132.0000
 SF-CAS             107:       -22.5428784204    12.3387   132.0000
 SF-CAS             108:       -22.5428784008    12.3387   132.0000
 SF-CAS             109:       -22.5426504905    12.3449   132.0000
 SF-CAS             110:       -22.5426504862    12.3449   132.0000
 SF-CAS             111:       -22.5422002849    12.3572   132.0000
 SF-CAS             112:       -22.5417782018    12.3686   132.0000
 SF-CAS             113:       -22.5415995680    12.3735   132.0000
 SF-CAS             114:       -22.5415995665    12.3735   132.0000
 SF-CAS             115:       -22.5409411814    12.3914   132.0000
 SF-CAS             116:       -22.5409411781    12.3914   132.0000
 SF-CAS             117:       -22.5385835217    12.4556   132.0000
 SF-CAS             118:       -22.5384265103    12.4598   132.0000
 SF-CAS             119:       -22.5376704996    12.4804   132.0000
 SF-CAS             120:       -22.5376704973    12.4804   132.0000
 SF-CAS             121:       -22.5322164391    12.6288   132.0000
 SF-CAS             122:       -22.5313342010    12.6528   132.0000
 SF-CAS             123:       -22.5299472171    12.6906   132.0000
 SF-CAS             124:       -22.5296242032    12.6994   132.0000
 SF-CAS             125:       -22.5281319052    12.7400   132.0000
 SF-CAS             126:       -22.5275215676    12.7566   132.0000
 SF-CAS             127:       -22.5269670447    12.7717   132.0000
 SF-CAS             128:       -22.5266688225    12.7798   132.0000
 SF-CAS             129:       -22.5244225115    12.8409   132.0000
 SF-CAS             130:       -22.5237734810    12.8586   132.0000
 SF-CAS             131:       -22.5213654193    12.9241   132.0000
 SF-CAS             132:       -22.5203104331    12.9528   132.0000
 SF-CAS             133:       -22.5189117474    12.9909   132.0000
 SF-CAS             134:       -22.5187711559    12.9947   132.0000
 SF-CAS             135:       -22.5175874956    13.0269   132.0000
 SF-CAS             136:       -22.5171137439    13.0398   132.0000
 SF-CAS             137:       -22.5157182996    13.0778   132.0000
 SF-CAS             138:       -22.5150075912    13.0971   132.0000
 SF-CAS             139:       -22.5147981003    13.1028   132.0000
 SF-CAS             140:       -22.5144001411    13.1136   132.0000
 SF-CAS             141:       -22.5090158590    13.2602   132.0000
 SF-CAS             142:       -22.5085290529    13.2734   132.0000
 SF-CAS             143:       -22.5066877282    13.3235   132.0000
 SF-CAS             144:       -22.5066408045    13.3248   132.0000
 SF-CAS             145:       -22.5061164263    13.3391   132.0000
 SF-CAS             146:       -22.5052749562    13.3619   132.0000
 SF-CAS             147:       -22.5051966385    13.3641   132.0000
 SF-CAS             148:       -22.5040848609    13.3943   132.0000
 SF-CAS             149:       -22.5038070590    13.4019   132.0000
 SF-CAS             150:       -22.5035592678    13.4086   132.0000
 SF-CAS             151:       -22.5029451397    13.4253   132.0000
 SF-CAS             152:       -22.5029138848    13.4262   132.0000
 SF-CAS             153:       -22.5015595507    13.4631   132.0000
 SF-CAS             154:       -22.5003763602    13.4952   132.0000
 SF-CAS             155:       -22.5003544619    13.4958   132.0000
 SF-CAS             156:       -22.5001950704    13.5002   132.0000
 SF-CAS             157:       -22.4935500967    13.6810   132.0000
 SF-CAS             158:       -22.4933151671    13.6874   132.0000
 SF-CAS             159:       -22.4919441265    13.7247   132.0000
 SF-CAS             160:       -22.4909922857    13.7506   132.0000
 SF-CAS             161:       -22.4881848306    13.8270   132.0000
 SF-CAS             162:       -22.4870662376    13.8574   132.0000
 SF-CAS             163:       -22.4856588808    13.8957   132.0000
 SF-CAS             164:       -22.4855831335    13.8978   132.0000
 SF-CAS             165:       -22.4795182804    14.0628   132.0000
 SF-CAS             166:       -22.4787225063    14.0845   132.0000
 SF-CAS             167:       -22.4773318564    14.1223   132.0000
 SF-CAS             168:       -22.4769342422    14.1331   132.0000
 SF-CAS             169:       -22.4676992112    14.3844   132.0000
 SF-CAS             170:       -22.4676992107    14.3844   132.0000
 SF-CAS             171:       -22.4646847645    14.4665   132.0000
 SF-CAS             172:       -22.4646847622    14.4665   132.0000
 SF-CAS             173:       -22.4607550692    14.5734   132.0000
 SF-CAS             174:       -22.4607550640    14.5734   132.0000
 SF-CAS             175:       -22.4552448488    14.7234   132.0000
 SF-CAS             176:       -22.4552448370    14.7234   132.0000
 SF-CAS             177:       -22.4528400725    14.7888   132.0000
 SF-CAS             178:       -22.4528400630    14.7888   132.0000
 SF-CAS             179:       -22.4474773358    14.9347   132.0000
 SF-CAS             180:       -22.4474773287    14.9347   132.0000
 SF-CAS             181:       -22.4429574347    15.0577   132.0000
 SF-CAS             182:       -22.4429574273    15.0577   132.0000
 SF-CAS             183:       -22.4408197687    15.1159   132.0000
 SF-CAS             184:       -22.4408197619    15.1159   132.0000
 SF-CAS             185:       -22.4394148697    15.1541   132.0000
 SF-CAS             186:       -22.4394148558    15.1541   132.0000
 SF-CAS             187:       -22.4360304447    15.2462   132.0000
 SF-CAS             188:       -22.4360304417    15.2462   132.0000
 SF-CAS             189:       -22.4315640824    15.3677   132.0000
 SF-CAS             190:       -22.4315640677    15.3677   132.0000
 SF-CAS             191:       -22.4287970144    15.4430   132.0000
 SF-CAS             192:       -22.4287970025    15.4430   132.0000
 SF-CAS             193:       -22.4267334777    15.4992   132.0000
 SF-CAS             194:       -22.4267334657    15.4992   132.0000
 SF-CAS             195:       -22.4232314087    15.5945   132.0000
 SF-CAS             196:       -22.4232313988    15.5945   132.0000
 SF-CAS             197:       -22.4227997190    15.6062   132.0000
 SF-CAS             198:       -22.4227997081    15.6062   132.0000
 SF-CAS             199:       -22.4218269678    15.6327   132.0000
 SF-CAS             200:       -22.4218269482    15.6327   132.0000
 SF-CAS             201:       -22.4210991239    15.6525   132.0000
 SF-CAS             202:       -22.4210991020    15.6525   132.0000
 SF-CAS             203:       -22.4191707264    15.7050   132.0000
 SF-CAS             204:       -22.4191706888    15.7050   132.0000
 SF-CAS             205:       -22.4184503806    15.7246   132.0000
 SF-CAS             206:       -22.4184503603    15.7246   132.0000
 SF-CAS             207:       -22.4169915418    15.7643   132.0000
 SF-CAS             208:       -22.4169914980    15.7643   132.0000
 SF-CAS             209:       -22.4151662583    15.8140   132.0000
 SF-CAS             210:       -22.4151662359    15.8140   132.0000
 SF-CAS             211:       -22.4122539929    15.8932   132.0000
 SF-CAS             212:       -22.4122539865    15.8932   132.0000
 SF-CAS             213:       -22.4088024665    15.9871   132.0000
 SF-CAS             214:       -22.4088024549    15.9871   132.0000
 SF-CAS             215:       -22.4062627192    16.0562   132.0000
 SF-CAS             216:       -22.4062626940    16.0562   132.0000
 SF-CAS             217:       -22.4045868487    16.1018   132.0000
 SF-CAS             218:       -22.4045868257    16.1018   132.0000
 SF-CAS             219:       -22.4030961481    16.1424   132.0000
 SF-CAS             220:       -22.4030961235    16.1424   132.0000
 SF-CAS             221:       -22.4019593106    16.1733   132.0000
 SF-CAS             222:       -22.4019592856    16.1733   132.0000
 SF-CAS             223:       -22.4012100171    16.1937   132.0000
 SF-CAS             224:       -22.4012099940    16.1937   132.0000
 SF-CAS             225:       -22.4003610187    16.2168   132.0000
 SF-CAS             226:       -22.4003610008    16.2168   132.0000
 SF-CAS             227:       -22.3988341202    16.2584   132.0000
 SF-CAS             228:       -22.3988341160    16.2584   132.0000
 SF-CAS             229:       -22.3986826132    16.2625   132.0000
 SF-CAS             230:       -22.3986825807    16.2625   132.0000
 SF-CAS             231:       -22.3962651011    16.3283   132.0000
 SF-CAS             232:       -22.3962650668    16.3283   132.0000
 SF-CAS             233:       -22.3950764830    16.3606   132.0000
 SF-CAS             234:       -22.3950764473    16.3606   132.0000
 SF-CAS             235:       -22.3934926253    16.4037   132.0000
 SF-CAS             236:       -22.3934926025    16.4037   132.0000
 SF-CAS             237:       -22.3924734241    16.4315   132.0000
 SF-CAS             238:       -22.3924733962    16.4315   132.0000
 SF-CAS             239:       -22.3913747771    16.4614   132.0000
 SF-CAS             240:       -22.3913747752    16.4614   132.0000
 SF-CAS             241:       -22.3910439995    16.4704   132.0000
 SF-CAS             242:       -22.3910439850    16.4704   132.0000
 SF-CAS             243:       -22.3883351932    16.5441   132.0000
 SF-CAS             244:       -22.3883351846    16.5441   132.0000
 SF-CAS             245:       -22.3881193349    16.5499   132.0000
 SF-CAS             246:       -22.3881193331    16.5499   132.0000
 SF-CAS             247:       -22.3875287967    16.5660   132.0000
 SF-CAS             248:       -22.3875287964    16.5660   132.0000
 SF-CAS             249:       -22.3872230131    16.5743   132.0000
 SF-CAS             250:       -22.3872229765    16.5743   132.0000
 SF-CAS             251:       -22.3850569157    16.6333   132.0000
 SF-CAS             252:       -22.3850568763    16.6333   132.0000
 SF-CAS             253:       -22.3839063177    16.6646   132.0000
 SF-CAS             254:       -22.3839063021    16.6646   132.0000
 SF-CAS             255:       -22.3835325932    16.6748   132.0000
 SF-CAS             256:       -22.3835325504    16.6748   132.0000
 SF-CAS             257:       -22.3810421613    16.7425   132.0000
 SF-CAS             258:       -22.3810421270    16.7425   132.0000
 SF-CAS             259:       -22.3777830699    16.8312   132.0000
 SF-CAS             260:       -22.3777830663    16.8312   132.0000
 SF-CAS             261:       -22.3768527532    16.8565   132.0000
 SF-CAS             262:       -22.3768526955    16.8565   132.0000
 SF-CAS             263:       -22.3755069953    16.8931   132.0000
 SF-CAS             264:       -22.3755069721    16.8932   132.0000
 SF-CAS             265:       -22.3747228222    16.9145   132.0000
 SF-CAS             266:       -22.3747228077    16.9145   132.0000
 SF-CAS             267:       -22.3739917312    16.9344   132.0000
 SF-CAS             268:       -22.3739917253    16.9344   132.0000
 SF-CAS             269:       -22.3722285168    16.9824   132.0000
 SF-CAS             270:       -22.3722284976    16.9824   132.0000
 SF-CAS             271:       -22.3704848085    17.0298   132.0000
 SF-CAS             272:       -22.3704847915    17.0298   132.0000
 SF-CAS             273:       -22.3685097295    17.0836   132.0000
 SF-CAS             274:       -22.3685097241    17.0836   132.0000
 SF-CAS             275:       -22.3678106463    17.1026   132.0000
 SF-CAS             276:       -22.3678106429    17.1026   132.0000
 SF-CAS             277:       -22.3663048827    17.1436   132.0000
 SF-CAS             278:       -22.3663048786    17.1436   132.0000
 SF-CAS             279:       -22.3637559469    17.2129   132.0000
 SF-CAS             280:       -22.3637559246    17.2129   132.0000
 SF-CAS             281:       -22.3632156812    17.2276   132.0000
 SF-CAS             282:       -22.3632156741    17.2276   132.0000
 SF-CAS             283:       -22.3586593550    17.3516   132.0000
 SF-CAS             284:       -22.3586593308    17.3516   132.0000
 SF-CAS             285:       -22.3572120944    17.3910   132.0000
 SF-CAS             286:       -22.3572120715    17.3910   132.0000
 SF-CAS             287:       -22.3541500066    17.4743   132.0000
 SF-CAS             288:       -22.3539815774    17.4789   132.0000
 SF-CAS             289:       -22.3516816387    17.5415   132.0000
 SF-CAS             290:       -22.3516815374    17.5415   132.0000
 SF-CAS             291:       -22.3468039055    17.6742   132.0000
 SF-CAS             292:       -22.3468038923    17.6742   132.0000
 SF-CAS             293:       -22.3446690903    17.7323   132.0000
 SF-CAS             294:       -22.3442783208    17.7429   132.0000
 SF-CAS             295:       -22.3441421082    17.7466   132.0000
 SF-CAS             296:       -22.3441420770    17.7466   132.0000
 SF-CAS             297:       -22.3437820490    17.7564   132.0000
 SF-CAS             298:       -22.3437819855    17.7564   132.0000
 SF-CAS             299:       -22.3432973352    17.7696   132.0000
 SF-CAS             300:       -22.3429502637    17.7791   132.0000
 SF-CAS             301:       -22.3424343876    17.7931   132.0000
 SF-CAS             302:       -22.3424343609    17.7931   132.0000
 SF-CAS             303:       -22.3416015273    17.8158   132.0000
 SF-CAS             304:       -22.3416015089    17.8158   132.0000
 SF-CAS             305:       -22.3401213686    17.8561   132.0000
 SF-CAS             306:       -22.3401213334    17.8561   132.0000
 SF-CAS             307:       -22.3397581518    17.8659   132.0000
 SF-CAS             308:       -22.3395270266    17.8722   132.0000
 SF-CAS             309:       -22.3386871623    17.8951   132.0000
 SF-CAS             310:       -22.3386871396    17.8951   132.0000
 SF-CAS             311:       -22.3379766328    17.9144   132.0000
 SF-CAS             312:       -22.3373598219    17.9312   132.0000
 SF-CAS             313:       -22.3372865279    17.9332   132.0000
 SF-CAS             314:       -22.3372865142    17.9332   132.0000
 SF-CAS             315:       -22.3352290338    17.9892   132.0000
 SF-CAS             316:       -22.3352290134    17.9892   132.0000
 SF-CAS             317:       -22.3336367061    18.0325   132.0000
 SF-CAS             318:       -22.3334280976    18.0382   132.0000
 SF-CAS             319:       -22.3304493520    18.1192   132.0000
 SF-CAS             320:       -22.3296654589    18.1406   132.0000
 SF-CAS             321:       -22.3293092837    18.1503   132.0000
 SF-CAS             322:       -22.3286151618    18.1692   132.0000
 SF-CAS             323:       -22.3280688104    18.1840   132.0000
 SF-CAS             324:       -22.3278396533    18.1903   132.0000
 SF-CAS             325:       -22.3272212644    18.2071   132.0000
 SF-CAS             326:       -22.3271218841    18.2098   132.0000
 SF-CAS             327:       -22.3263322512    18.2313   132.0000
 SF-CAS             328:       -22.3262473573    18.2336   132.0000
 SF-CAS             329:       -22.3255958945    18.2513   132.0000
 SF-CAS             330:       -22.3248750898    18.2709   132.0000
 SF-CAS             331:       -22.3233406822    18.3127   132.0000
 SF-CAS             332:       -22.3231292577    18.3184   132.0000
 SF-CAS             333:       -22.3214547998    18.3640   132.0000
 SF-CAS             334:       -22.3214212759    18.3649   132.0000
 SF-CAS             335:       -22.3208120730    18.3815   132.0000
 SF-CAS             336:       -22.3200152983    18.4032   132.0000
 SF-CAS             337:       -22.3200113839    18.4033   132.0000
 SF-CAS             338:       -22.3187352954    18.4380   132.0000
 SF-CAS             339:       -22.3185223208    18.4438   132.0000
 SF-CAS             340:       -22.3182154947    18.4521   132.0000
 SF-CAS             341:       -22.3163657291    18.5025   132.0000
 SF-CAS             342:       -22.3162866902    18.5046   132.0000
 SF-CAS             343:       -22.3159737416    18.5131   132.0000
 SF-CAS             344:       -22.3155015655    18.5260   132.0000
 SF-CAS             345:       -22.3152211866    18.5336   132.0000
 SF-CAS             346:       -22.3150237207    18.5390   132.0000
 SF-CAS             347:       -22.3126637580    18.6032   132.0000
 SF-CAS             348:       -22.3125819327    18.6054   132.0000
 SF-CAS             349:       -22.3124537333    18.6089   132.0000
 SF-CAS             350:       -22.3120200728    18.6207   132.0000
 SF-CAS             351:       -22.3118760154    18.6247   132.0000
 SF-CAS             352:       -22.3112251689    18.6424   132.0000
 SF-CAS             353:       -22.3105681952    18.6602   132.0000
 SF-CAS             354:       -22.3104170662    18.6644   132.0000
 SF-CAS             355:       -22.3101140039    18.6726   132.0000
 SF-CAS             356:       -22.3099591314    18.6768   132.0000
 SF-CAS             357:       -22.3097017804    18.6838   132.0000
 SF-CAS             358:       -22.3089919563    18.7031   132.0000
 SF-CAS             359:       -22.3089694761    18.7037   132.0000
 SF-CAS             360:       -22.3086821042    18.7116   132.0000
 SF-CAS             361:       -22.3072266280    18.7512   132.0000
 SF-CAS             362:       -22.3067864095    18.7632   132.0000
 SF-CAS             363:       -22.3066672794    18.7664   132.0000
 SF-CAS             364:       -22.3061966306    18.7792   132.0000
 SF-CAS             365:       -22.3057835758    18.7904   132.0000
 SF-CAS             366:       -22.3056432719    18.7943   132.0000
 SF-CAS             367:       -22.3027079520    18.8741   132.0000
 SF-CAS             368:       -22.3022792476    18.8858   132.0000
 SF-CAS             369:       -22.3016996877    18.9016   132.0000
 SF-CAS             370:       -22.3015499175    18.9056   132.0000
 SF-CAS             371:       -22.3014566384    18.9082   132.0000
 SF-CAS             372:       -22.3013679540    18.9106   132.0000
 SF-CAS             373:       -22.3011086291    18.9177   132.0000
 SF-CAS             374:       -22.3003871753    18.9373   132.0000
 SF-CAS             375:       -22.3002428891    18.9412   132.0000
 SF-CAS             376:       -22.3001147804    18.9447   132.0000
 SF-CAS             377:       -22.2993457435    18.9656   132.0000
 SF-CAS             378:       -22.2993180128    18.9664   132.0000
 SF-CAS             379:       -22.2979104032    19.0047   132.0000
 SF-CAS             380:       -22.2978595313    19.0061   132.0000
 SF-CAS             381:       -22.2976581242    19.0115   132.0000
 SF-CAS             382:       -22.2974816239    19.0163   132.0000
 SF-CAS             383:       -22.2967958777    19.0350   132.0000
 SF-CAS             384:       -22.2958969934    19.0595   132.0000
 SF-CAS             385:       -22.2953217261    19.0751   132.0000
 SF-CAS             386:       -22.2953145737    19.0753   132.0000
 SF-CAS             387:       -22.2952852890    19.0761   132.0000
 SF-CAS             388:       -22.2952639987    19.0767   132.0000
 SF-CAS             389:       -22.2947503067    19.0907   132.0000
 SF-CAS             390:       -22.2939382668    19.1128   132.0000
 SF-CAS             391:       -22.2938861244    19.1142   132.0000
 SF-CAS             392:       -22.2930824747    19.1361   132.0000
 SF-CAS             393:       -22.2930686177    19.1364   132.0000
 SF-CAS             394:       -22.2921171192    19.1623   132.0000
 SF-CAS             395:       -22.2920538892    19.1640   132.0000
 SF-CAS             396:       -22.2918565919    19.1694   132.0000
 SF-CAS             397:       -22.2916190170    19.1759   132.0000
 SF-CAS             398:       -22.2915880702    19.1767   132.0000
 SF-CAS             399:       -22.2915612829    19.1775   132.0000
 SF-CAS             400:       -22.2912512255    19.1859   132.0000
 SF-CAS             401:       -22.2885491153    19.2594   132.0000
 SF-CAS             402:       -22.2882324722    19.2680   132.0000
 SF-CAS             403:       -22.2880868161    19.2720   132.0000
 SF-CAS             404:       -22.2880544828    19.2729   132.0000
 SF-CAS             405:       -22.2866310200    19.3116   132.0000
 SF-CAS             406:       -22.2866276775    19.3117   132.0000
 SF-CAS             407:       -22.2852791644    19.3484   132.0000
 SF-CAS             408:       -22.2847469174    19.3629   132.0000
 SF-CAS             409:       -22.2834601002    19.3979   132.0000
 SF-CAS             410:       -22.2834342681    19.3986   132.0000
 SF-CAS             411:       -22.2834108847    19.3992   132.0000
 SF-CAS             412:       -22.2831841288    19.4054   132.0000
 SF-CAS             413:       -22.2828651281    19.4141   132.0000
 SF-CAS             414:       -22.2828473355    19.4146   132.0000
 SF-CAS             415:       -22.2827548971    19.4171   132.0000
 SF-CAS             416:       -22.2822243976    19.4315   132.0000
 SF-CAS             417:       -22.2822177938    19.4317   132.0000
 SF-CAS             418:       -22.2821801205    19.4327   132.0000
 SF-CAS             419:       -22.2819933987    19.4378   132.0000
 SF-CAS             420:       -22.2819664272    19.4385   132.0000
 SF-CAS             421:       -22.2815748245    19.4492   132.0000
 SF-CAS             422:       -22.2809214031    19.4670   132.0000
 SF-CAS             423:       -22.2775900033    19.5576   132.0000
 SF-CAS             424:       -22.2773860885    19.5632   132.0000
 SF-CAS             425:       -22.2771720689    19.5690   132.0000
 SF-CAS             426:       -22.2771638238    19.5692   132.0000
 SF-CAS             427:       -22.2767726171    19.5799   132.0000
 SF-CAS             428:       -22.2766250199    19.5839   132.0000
 SF-CAS             429:       -22.2761413578    19.5971   132.0000
 SF-CAS             430:       -22.2757476221    19.6078   132.0000
 SF-CAS             431:       -22.2745201908    19.6412   132.0000
 SF-CAS             432:       -22.2738913656    19.6583   132.0000
 SF-CAS             433:       -22.2736363000    19.6652   132.0000
 SF-CAS             434:       -22.2734282534    19.6709   132.0000
 SF-CAS             435:       -22.2729930937    19.6827   132.0000
 SF-CAS             436:       -22.2719421060    19.7113   132.0000
 SF-CAS             437:       -22.2715135554    19.7230   132.0000
 SF-CAS             438:       -22.2714115217    19.7258   132.0000
 SF-CAS             439:       -22.2713713117    19.7269   132.0000
 SF-CAS             440:       -22.2711849273    19.7319   132.0000
 SF-CAS             441:       -22.2692747335    19.7839   132.0000
 SF-CAS             442:       -22.2688384918    19.7958   132.0000
 SF-CAS             443:       -22.2687224348    19.7989   132.0000
 SF-CAS             444:       -22.2682186801    19.8126   132.0000
 SF-CAS             445:       -22.2681224957    19.8153   132.0000
 SF-CAS             446:       -22.2679924366    19.8188   132.0000
 SF-CAS             447:       -22.2676024842    19.8294   132.0000
 SF-CAS             448:       -22.2674040952    19.8348   132.0000
 SF-CAS             449:       -22.2642646213    19.9202   132.0000
 SF-CAS             450:       -22.2640559969    19.9259   132.0000
 SF-CAS             451:       -22.2638891165    19.9305   132.0000
 SF-CAS             452:       -22.2638626199    19.9312   132.0000
 SF-CAS             453:       -22.2625763624    19.9662   132.0000
 SF-CAS             454:       -22.2613620989    19.9992   132.0000
 SF-CAS             455:       -22.2601111846    20.0333   132.0000
 SF-CAS             456:       -22.2600743057    20.0343   132.0000
 SF-CAS             457:       -22.2599926765    20.0365   132.0000
 SF-CAS             458:       -22.2599741282    20.0370   132.0000
 SF-CAS             459:       -22.2596535284    20.0457   132.0000
 SF-CAS             460:       -22.2588419233    20.0678   132.0000
 SF-CAS             461:       -22.2587012871    20.0716   132.0000
 SF-CAS             462:       -22.2586740432    20.0724   132.0000
 SF-CAS             463:       -22.2580049338    20.0906   132.0000
 SF-CAS             464:       -22.2575475715    20.1030   132.0000
 SF-CAS             465:       -22.2575121861    20.1040   132.0000
 SF-CAS             466:       -22.2566882675    20.1264   132.0000
 SF-CAS             467:       -22.2561489449    20.1411   132.0000
 SF-CAS             468:       -22.2560756646    20.1431   132.0000
 SF-CAS             469:       -22.2538319169    20.2041   132.0000
 SF-CAS             470:       -22.2534464845    20.2146   132.0000
 SF-CAS             471:       -22.2533790660    20.2165   132.0000
 SF-CAS             472:       -22.2529579935    20.2279   132.0000
 SF-CAS             473:       -22.2500135668    20.3080   132.0000
 SF-CAS             474:       -22.2496665505    20.3175   132.0000
 SF-CAS             475:       -22.2450436878    20.4433   132.0000
 SF-CAS             476:       -22.2447903682    20.4502   132.0000
 SF-CAS             477:       -22.2442119224    20.4659   132.0000
 SF-CAS             478:       -22.2435821173    20.4830   132.0000
 SF-CAS             479:       -22.2430440837    20.4977   132.0000
 SF-CAS             480:       -22.2423870235    20.5156   132.0000
 SF-CAS             481:       -22.2409993355    20.5533   132.0000
 SF-CAS             482:       -22.2404673483    20.5678   132.0000
 SF-CAS             483:       -22.2381859421    20.6299   132.0000
 SF-CAS             484:       -22.2379351710    20.6367   132.0000
 SF-CAS             485:       -22.2296035510    20.8634   132.0000
 SF-CAS             486:       -22.2295322521    20.8654   132.0000
 SF-CAS             487:       -22.1909850726    21.9143   132.0000
 SF-CAS             488:       -22.1909850710    21.9143   132.0000
 SF-CAS             489:       -22.1858053372    22.0552   132.0000
 SF-CAS             490:       -22.1858053257    22.0552   132.0000
 SF-CAS             491:       -22.1837153509    22.1121   132.0000
 SF-CAS             492:       -22.1837153267    22.1121   132.0000
 SF-CAS             493:       -22.1723928343    22.4202   132.0000
 SF-CAS             494:       -22.1723928021    22.4202   132.0000
 SF-CAS             495:       -22.1689631274    22.5135   132.0000
 SF-CAS             496:       -22.1689630981    22.5135   132.0000
 SF-CAS             497:       -22.1645990713    22.6323   132.0000
 SF-CAS             498:       -22.1645990615    22.6323   132.0000
 SF-CAS             499:       -22.1589726603    22.7854   132.0000
 SF-CAS             500:       -22.1589726439    22.7854   132.0000
 SF-CAS             501:       -22.1579112219    22.8143   132.0000
 SF-CAS             502:       -22.1579112093    22.8143   132.0000
 SF-CAS             503:       -22.1519668629    22.9760   132.0000
 SF-CAS             504:       -22.1519668128    22.9760   132.0000
 SF-CAS             505:       -22.1484164256    23.0727   132.0000
 SF-CAS             506:       -22.1484164059    23.0727   132.0000
 SF-CAS             507:       -22.1471430142    23.1073   132.0000
 SF-CAS             508:       -22.1471429912    23.1073   132.0000
 SF-CAS             509:       -22.1449247712    23.1677   132.0000
 SF-CAS             510:       -22.1449247701    23.1677   132.0000
 SF-CAS             511:       -22.1411614576    23.2701   132.0000
 SF-CAS             512:       -22.1411614182    23.2701   132.0000
 SF-CAS             513:       -22.1383454281    23.3467   132.0000
 SF-CAS             514:       -22.1383453874    23.3467   132.0000
 SF-CAS             515:       -22.1340175237    23.4645   132.0000
 SF-CAS             516:       -22.1340175127    23.4645   132.0000
 SF-CAS             517:       -22.1244425782    23.7250   132.0000
 SF-CAS             518:       -22.1244425402    23.7250   132.0000
 SF-CAS             519:       -22.1221927567    23.7862   132.0000
 SF-CAS             520:       -22.1221927359    23.7862   132.0000
 SF-CAS             521:       -22.1143370453    24.0000   132.0000
 SF-CAS             522:       -22.1143369847    24.0000   132.0000
 SF-CAS             523:       -22.0845060494    24.8118   132.0000
 SF-CAS             524:       -22.0840178272    24.8251   132.0000
 SF-CAS             525:       -22.0827515395    24.8595   132.0000
 SF-CAS             526:       -22.0820234664    24.8793   132.0000
 SF-CAS             527:       -22.0747045188    25.0785   132.0000
 SF-CAS             528:       -22.0746297318    25.0805   132.0000
 SF-CAS             529:       -22.0734454093    25.1127   132.0000
 SF-CAS             530:       -22.0721700135    25.1474   132.0000
 SF-CAS             531:       -22.0683391874    25.2517   132.0000
 SF-CAS             532:       -22.0674004737    25.2772   132.0000
 SF-CAS             533:       -22.0661170233    25.3122   132.0000
 SF-CAS             534:       -22.0658305949    25.3200   132.0000
 SF-CAS             535:       -22.0650341274    25.3416   132.0000
 SF-CAS             536:       -22.0649857243    25.3429   132.0000
 SF-CAS             537:       -22.0575847492    25.5443   132.0000
 SF-CAS             538:       -22.0562870330    25.5797   132.0000
 SF-CAS             539:       -22.0557226774    25.5950   132.0000
 SF-CAS             540:       -22.0551214749    25.6114   132.0000
 SF-CAS             541:       -22.0550638409    25.6129   132.0000
 SF-CAS             542:       -22.0550089304    25.6144   132.0000
 SF-CAS             543:       -22.0517844132    25.7022   132.0000
 SF-CAS             544:       -22.0515008534    25.7099   132.0000
 SF-CAS             545:       -22.0511633618    25.7191   132.0000
[...]
 J( 4, 5) =          6241.022363  : J'( 4, 5) =         -3120.511181  (cm-1)
 J( 4, 6) =          5794.247411  : J'( 4, 6) =         -2897.123706  (cm-1)
 J( 4, 7) =          6290.279369  : J'( 4, 7) =         -3145.139685  (cm-1)
 J( 4, 8) =            40.987387  : J'( 4, 8) =           -20.493693  (cm-1)
 J( 4, 9) =           696.409854  : J'( 4, 9) =          -348.204927  (cm-1)
 J( 4,10) =            32.363041  : J'( 4,10) =           -16.181520  (cm-1)
 J( 4,11) =            35.893739  : J'( 4,11) =           -17.946870  (cm-1)
 J( 4,12) =            -0.000000  : J'( 4,12) =             0.000000  (cm-1)
 J( 4,13) =             0.000000  : J'( 4,13) =            -0.000000  (cm-1)
 J( 4,14) =            -0.000000  : J'( 4,14) =             0.000000  (cm-1)
 J( 4,15) =             0.000000  : J'( 4,15) =            -0.000000  (cm-1)
 J( 4,16) =             0.000000  : J'( 4,16) =            -0.000000  (cm-1)
 J( 4,17) =            -0.000000  : J'( 4,17) =             0.000000  (cm-1)
 J( 4,18) =            -0.000000  : J'( 4,18) =             0.000000  (cm-1)
 J( 4,19) =            -0.000000  : J'( 4,19) =             0.000000  (cm-1)
 J( 4,20) =            -0.000000  : J'( 4,20) =             0.000000  (cm-1)
 J( 4,21) =             0.000000  : J'( 4,21) =            -0.000000  (cm-1)
 J( 4,22) =             0.000000  : J'( 4,22) =            -0.000000  (cm-1)
 J( 4,23) =             0.000000  : J'( 4,23) =            -0.000000  (cm-1)
 J( 5, 6) =          6339.691673  : J'( 5, 6) =         -3169.845836  (cm-1)
 J( 5, 7) =          6079.390174  : J'( 5, 7) =         -3039.695087  (cm-1)
 J( 5, 8) =            -3.661732  : J'( 5, 8) =             1.830866  (cm-1)
 J( 5, 9) =           -14.601383  : J'( 5, 9) =             7.300691  (cm-1)
 J( 5,10) =             0.442842  : J'( 5,10) =            -0.221421  (cm-1)
 J( 5,11) =            -3.095723  : J'( 5,11) =             1.547862  (cm-1)
 J( 5,12) =             0.000000  : J'( 5,12) =            -0.000000  (cm-1)
 J( 5,13) =             0.000000  : J'( 5,13) =            -0.000000  (cm-1)
 J( 5,14) =             0.000000  : J'( 5,14) =            -0.000000  (cm-1)
 J( 5,15) =             0.000000  : J'( 5,15) =            -0.000000  (cm-1)
 J( 5,16) =            -0.000000  : J'( 5,16) =             0.000000  (cm-1)
 J( 5,17) =             0.000000  : J'( 5,17) =            -0.000000  (cm-1)
 J( 5,18) =             0.000000  : J'( 5,18) =            -0.000000  (cm-1)
 J( 5,19) =            -0.000000  : J'( 5,19) =             0.000000  (cm-1)
 J( 5,20) =             0.000000  : J'( 5,20) =            -0.000000  (cm-1)
 J( 5,21) =             0.000000  : J'( 5,21) =            -0.000000  (cm-1)
 J( 5,22) =             0.000000  : J'( 5,22) =            -0.000000  (cm-1)
 J( 5,23) =            -0.000000  : J'( 5,23) =             0.000000  (cm-1)
 J( 6, 7) =          6081.155948  : J'( 6, 7) =         -3040.577974  (cm-1)
 J( 6, 8) =            29.568446  : J'( 6, 8) =           -14.784223  (cm-1)
 J( 6, 9) =           786.459511  : J'( 6, 9) =          -393.229756  (cm-1)
 J( 6,10) =            57.947746  : J'( 6,10) =           -28.973873  (cm-1)
 J( 6,11) =            18.369066  : J'( 6,11) =            -9.184533  (cm-1)
 J( 6,12) =             0.000000  : J'( 6,12) =            -0.000000  (cm-1)
 J( 6,13) =            -0.000000  : J'( 6,13) =             0.000000  (cm-1)
 J( 6,14) =             0.000000  : J'( 6,14) =            -0.000000  (cm-1)
 J( 6,15) =            -0.000000  : J'( 6,15) =             0.000000  (cm-1)
 J( 6,16) =            -0.000000  : J'( 6,16) =             0.000000  (cm-1)
 J( 6,17) =            -0.000000  : J'( 6,17) =             0.000000  (cm-1)
 J( 6,18) =            -0.000000  : J'( 6,18) =             0.000000  (cm-1)
 J( 6,19) =             0.000000  : J'( 6,19) =            -0.000000  (cm-1)
 J( 6,20) =            -0.000000  : J'( 6,20) =             0.000000  (cm-1)
 J( 6,21) =             0.000000  : J'( 6,21) =            -0.000000  (cm-1)
 J( 6,22) =             0.000000  : J'( 6,22) =            -0.000000  (cm-1)
 J( 6,23) =             0.000000  : J'( 6,23) =            -0.000000  (cm-1)
 J( 7, 8) =            -2.186001  : J'( 7, 8) =             1.093001  (cm-1)
 J( 7, 9) =           -12.590920  : J'( 7, 9) =             6.295460  (cm-1)
 J( 7,10) =             0.750286  : J'( 7,10) =            -0.375143  (cm-1)
 J( 7,11) =             0.052509  : J'( 7,11) =            -0.026254  (cm-1)
 J( 7,12) =             0.000000  : J'( 7,12) =            -0.000000  (cm-1)
 J( 7,13) =             0.000000  : J'( 7,13) =            -0.000000  (cm-1)
 J( 7,14) =             0.000000  : J'( 7,14) =            -0.000000  (cm-1)
 J( 7,15) =            -0.000000  : J'( 7,15) =             0.000000  (cm-1)
 J( 7,16) =            -0.000000  : J'( 7,16) =             0.000000  (cm-1)
 J( 7,17) =            -0.000000  : J'( 7,17) =             0.000000  (cm-1)
 J( 7,18) =             0.000000  : J'( 7,18) =            -0.000000  (cm-1)
 J( 7,19) =            -0.000000  : J'( 7,19) =             0.000000  (cm-1)
 J( 7,20) =            -0.000000  : J'( 7,20) =             0.000000  (cm-1)
 J( 7,21) =            -0.000000  : J'( 7,21) =             0.000000  (cm-1)
 J( 7,22) =             0.000000  : J'( 7,22) =            -0.000000  (cm-1)
 J( 7,23) =             0.000000  : J'( 7,23) =            -0.000000  (cm-1)
 J( 8, 9) =          6266.249221  : J'( 8, 9) =         -3133.124611  (cm-1)
 J( 8,10) =          6237.008550  : J'( 8,10) =         -3118.504275  (cm-1)
 J( 8,11) =          6203.271747  : J'( 8,11) =         -3101.635874  (cm-1)
 J( 8,12) =            -0.000000  : J'( 8,12) =             0.000000  (cm-1)
 J( 8,13) =            -0.000000  : J'( 8,13) =             0.000000  (cm-1)
 J( 8,14) =             0.000000  : J'( 8,14) =            -0.000000  (cm-1)
 J( 8,15) =            -0.000000  : J'( 8,15) =             0.000000  (cm-1)
 J( 8,16) =             0.000000  : J'( 8,16) =            -0.000000  (cm-1)
 J( 8,17) =            -0.000000  : J'( 8,17) =             0.000000  (cm-1)
 J( 8,18) =             0.000000  : J'( 8,18) =            -0.000000  (cm-1)
 J( 8,19) =             0.000000  : J'( 8,19) =            -0.000000  (cm-1)
 J( 8,20) =             0.000000  : J'( 8,20) =            -0.000000  (cm-1)
 J( 8,21) =            -0.000000  : J'( 8,21) =             0.000000  (cm-1)
 J( 8,22) =            -0.000000  : J'( 8,22) =             0.000000  (cm-1)
 J( 8,23) =             0.000000  : J'( 8,23) =            -0.000000  (cm-1)
 J( 9,10) =          6062.627902  : J'( 9,10) =         -3031.313951  (cm-1)
 J( 9,11) =          6143.760412  : J'( 9,11) =         -3071.880206  (cm-1)
 J( 9,12) =             0.000000  : J'( 9,12) =            -0.000000  (cm-1)
 J( 9,13) =             0.000000  : J'( 9,13) =            -0.000000  (cm-1)
 J( 9,14) =             0.000000  : J'( 9,14) =            -0.000000  (cm-1)
 J( 9,15) =            -0.000000  : J'( 9,15) =             0.000000  (cm-1)
 J( 9,16) =             0.000000  : J'( 9,16) =            -0.000000  (cm-1)
 J( 9,17) =            -0.000000  : J'( 9,17) =             0.000000  (cm-1)
 J( 9,18) =            -0.000000  : J'( 9,18) =             0.000000  (cm-1)
 J( 9,19) =             0.000000  : J'( 9,19) =            -0.000000  (cm-1)
 J( 9,20) =             0.000000  : J'( 9,20) =            -0.000000  (cm-1)
 J( 9,21) =            -0.000000  : J'( 9,21) =             0.000000  (cm-1)
 J( 9,22) =            -0.000000  : J'( 9,22) =             0.000000  (cm-1)
 J( 9,23) =            -0.000000  : J'( 9,23) =             0.000000  (cm-1)
 J(10,11) =          5923.781711  : J'(10,11) =         -2961.890855  (cm-1)
 J(10,12) =             0.000000  : J'(10,12) =            -0.000000  (cm-1)
 J(10,13) =             0.000000  : J'(10,13) =            -0.000000  (cm-1)
 J(10,14) =             0.000000  : J'(10,14) =            -0.000000  (cm-1)
 J(10,15) =             0.000000  : J'(10,15) =            -0.000000  (cm-1)
 J(10,16) =             0.000000  : J'(10,16) =            -0.000000  (cm-1)
 J(10,17) =             0.000000  : J'(10,17) =            -0.000000  (cm-1)
 J(10,18) =             0.000000  : J'(10,18) =            -0.000000  (cm-1)
 J(10,19) =            -0.000000  : J'(10,19) =             0.000000  (cm-1)
 J(10,20) =            -0.000000  : J'(10,20) =             0.000000  (cm-1)
 J(10,21) =             0.000000  : J'(10,21) =            -0.000000  (cm-1)
 J(10,22) =             0.000000  : J'(10,22) =            -0.000000  (cm-1)
 J(10,23) =            -0.000000  : J'(10,23) =             0.000000  (cm-1)
 J(11,12) =             0.000000  : J'(11,12) =            -0.000000  (cm-1)
 J(11,13) =            -0.000000  : J'(11,13) =             0.000000  (cm-1)
 J(11,14) =             0.000000  : J'(11,14) =            -0.000000  (cm-1)
 J(11,15) =             0.000000  : J'(11,15) =            -0.000000  (cm-1)
 J(11,16) =            -0.000000  : J'(11,16) =             0.000000  (cm-1)
 J(11,17) =             0.000000  : J'(11,17) =            -0.000000  (cm-1)
 J(11,18) =             0.000000  : J'(11,18) =            -0.000000  (cm-1)
 J(11,19) =            -0.000000  : J'(11,19) =             0.000000  (cm-1)
 J(11,20) =            -0.000000  : J'(11,20) =             0.000000  (cm-1)
 J(11,21) =             0.000000  : J'(11,21) =            -0.000000  (cm-1)
 J(11,22) =            -0.000000  : J'(11,22) =             0.000000  (cm-1)
 J(11,23) =             0.000000  : J'(11,23) =            -0.000000  (cm-1)
 J(12,13) =          6309.602672  : J'(12,13) =         -3154.801336  (cm-1)
 J(12,14) =          5776.347751  : J'(12,14) =         -2888.173875  (cm-1)
 J(12,15) =          6197.196962  : J'(12,15) =         -3098.598481  (cm-1)
 J(12,16) =            33.339608  : J'(12,16) =           -16.669804  (cm-1)
 J(12,17) =            34.105757  : J'(12,17) =           -17.052878  (cm-1)
 J(12,18) =           698.472468  : J'(12,18) =          -349.236234  (cm-1)
 J(12,19) =            31.601212  : J'(12,19) =           -15.800606  (cm-1)
 J(12,20) =           -36.103144  : J'(12,20) =            18.051572  (cm-1)
 J(12,21) =            40.198378  : J'(12,21) =           -20.099189  (cm-1)
 J(12,22) =           430.955732  : J'(12,22) =          -215.477866  (cm-1)
 J(12,23) =           371.879095  : J'(12,23) =          -185.939547  (cm-1)
 J(13,14) =          6266.175570  : J'(13,14) =         -3133.087785  (cm-1)
 J(13,15) =          6075.674284  : J'(13,15) =         -3037.837142  (cm-1)
 J(13,16) =            -4.379900  : J'(13,16) =             2.189950  (cm-1)
 J(13,17) =            -3.841769  : J'(13,17) =             1.920885  (cm-1)
 J(13,18) =           -18.328940  : J'(13,18) =             9.164470  (cm-1)
 J(13,19) =             4.516336  : J'(13,19) =            -2.258168  (cm-1)
 J(13,20) =            -4.680811  : J'(13,20) =             2.340406  (cm-1)
 J(13,21) =             4.667913  : J'(13,21) =            -2.333956  (cm-1)
 J(13,22) =            25.520547  : J'(13,22) =           -12.760273  (cm-1)
 J(13,23) =            26.296747  : J'(13,23) =           -13.148373  (cm-1)
 J(14,15) =          6195.377521  : J'(14,15) =         -3097.688761  (cm-1)
 J(14,16) =            10.359329  : J'(14,16) =            -5.179664  (cm-1)
 J(14,17) =            20.477425  : J'(14,17) =           -10.238713  (cm-1)
 J(14,18) =           651.424243  : J'(14,18) =          -325.712121  (cm-1)
 J(14,19) =           146.599275  : J'(14,19) =           -73.299638  (cm-1)
 J(14,20) =            -3.699195  : J'(14,20) =             1.849597  (cm-1)
 J(14,21) =             4.309980  : J'(14,21) =            -2.154990  (cm-1)
 J(14,22) =            21.449803  : J'(14,22) =           -10.724901  (cm-1)
 J(14,23) =            22.049820  : J'(14,23) =           -11.024910  (cm-1)
 J(15,16) =            -1.431323  : J'(15,16) =             0.715662  (cm-1)
 J(15,17) =            -0.079108  : J'(15,17) =             0.039554  (cm-1)
 J(15,18) =            -1.313906  : J'(15,18) =             0.656953  (cm-1)
 J(15,19) =             3.714599  : J'(15,19) =            -1.857300  (cm-1)
 J(15,20) =            -4.365817  : J'(15,20) =             2.182909  (cm-1)
 J(15,21) =             3.773451  : J'(15,21) =            -1.886726  (cm-1)
 J(15,22) =            30.342683  : J'(15,22) =           -15.171342  (cm-1)
 J(15,23) =            21.621217  : J'(15,23) =           -10.810608  (cm-1)
 J(16,17) =          6241.029486  : J'(16,17) =         -3120.514743  (cm-1)
 J(16,18) =          5794.248583  : J'(16,18) =         -2897.124292  (cm-1)
 J(16,19) =          6290.281847  : J'(16,19) =         -3145.140923  (cm-1)
 J(16,20) =            40.987528  : J'(16,20) =           -20.493764  (cm-1)
 J(16,21) =           696.412122  : J'(16,21) =          -348.206061  (cm-1)
 J(16,22) =            32.363154  : J'(16,22) =           -16.181577  (cm-1)
 J(16,23) =            35.893850  : J'(16,23) =           -17.946925  (cm-1)
 J(17,18) =          6339.694919  : J'(17,18) =         -3169.847459  (cm-1)
 J(17,19) =          6079.394104  : J'(17,19) =         -3039.697052  (cm-1)
 J(17,20) =            -3.661743  : J'(17,20) =             1.830872  (cm-1)
 J(17,21) =           -14.601425  : J'(17,21) =             7.300712  (cm-1)
 J(17,22) =             0.442835  : J'(17,22) =            -0.221418  (cm-1)
 J(17,23) =            -3.095729  : J'(17,23) =             1.547865  (cm-1)
 J(18,19) =          6081.154457  : J'(18,19) =         -3040.577228  (cm-1)
 J(18,20) =            29.568539  : J'(18,20) =           -14.784269  (cm-1)
 J(18,21) =           786.461118  : J'(18,21) =          -393.230559  (cm-1)
 J(18,22) =            57.947807  : J'(18,22) =           -28.973903  (cm-1)
 J(18,23) =            18.369145  : J'(18,23) =            -9.184572  (cm-1)
 J(19,20) =            -2.186001  : J'(19,20) =             1.093001  (cm-1)
 J(19,21) =           -12.590922  : J'(19,21) =             6.295461  (cm-1)
 J(19,22) =             0.750286  : J'(19,22) =            -0.375143  (cm-1)
 J(19,23) =             0.052513  : J'(19,23) =            -0.026256  (cm-1)
 J(20,21) =          6266.252719  : J'(20,21) =         -3133.126359  (cm-1)
 J(20,22) =          6237.012548  : J'(20,22) =         -3118.506274  (cm-1)
 J(20,23) =          6203.272591  : J'(20,23) =         -3101.636296  (cm-1)
 J(21,22) =          6062.629475  : J'(21,22) =         -3031.314737  (cm-1)
 J(21,23) =          6143.758831  : J'(21,23) =         -3071.879415  (cm-1)
 J(22,23) =          5923.780173  : J'(22,23) =         -2961.890086  (cm-1)
 Analysis of SCF Wavefunction

 --------------------------------------------------------------

                    Orbital Energies (a.u.)
 --------------------------------------------------------------

 Alpha MOs
 -- Occupied --
 -0.914  -0.914  -0.914  -0.914  -0.517  -0.516  -0.515  -0.515
 -0.515  -0.516  -0.515  -0.515  -0.518  -0.516  -0.515  -0.515
 -0.516  -0.518  -0.519  -0.517  -0.515  -0.517  -0.517  -0.516
 -0.516  -0.515  -0.519  -0.515
 -- Virtual --
  0.969   1.070   1.027   1.091   1.142   0.989   1.017   1.086
  0.981   1.045   1.198   1.056   1.014   1.011   1.007   1.022
  1.004   1.170   1.009   1.081   0.967   1.030   1.001   1.045
  0.814   1.071   1.048   0.996

 Beta MOs
 -- Occupied --
 -0.914  -0.914  -0.914  -0.914
 -- Virtual --
  0.151   0.147   0.148   0.148   0.149   0.147   0.150   0.148
  0.150   0.147   0.148   0.148   0.147   0.150   0.151   0.148
  0.150   0.148   0.151   0.147   0.147   0.148   0.151   0.149
  1.132   1.216   1.184   1.248   1.238   1.155   1.168   1.218
  1.136   1.175   1.282   1.188   1.174   1.168   1.170   1.169
  1.159   1.275   1.179   1.197   1.131   1.193   1.158   1.198
  1.000   1.194   1.205   1.152
 --------------------------------------------------------------

          Ground-State Mulliken Net Atomic Charges

     Atom                 Charge (a.u.)
  ----------------------------------------
      1 H                     0.000046
      2 H                     0.000055
      3 H                    -0.000018
      4 H                    -0.000003
      5 H                    -0.000040
      6 H                     0.000041
      7 H                     0.000035
      8 H                    -0.000060
      9 H                     0.000073
     10 H                     0.000060
     11 H                    -0.000098
     12 H                    -0.000090
     13 He                   -0.000000
     14 He                    0.000000
     15 H                     0.000046
     16 H                     0.000055
     17 H                    -0.000018
     18 H                    -0.000003
     19 H                    -0.000040
     20 H                     0.000041
     21 H                     0.000035
     22 H                    -0.000060
     23 H                     0.000073
     24 H                     0.000060
     25 H                    -0.000098
     26 H                    -0.000090
     27 He                    0.000000
     28 He                   -0.000000
  ----------------------------------------
  Sum of atomic charges =    -0.000000

 -----------------------------------------------------------------
                    Cartesian Multipole Moments
 -----------------------------------------------------------------
    Charge (ESU x 10^10)
                -0.0000
    Dipole Moment (Debye)
         X       0.0004      Y      -0.0010      Z       0.0008
       Tot       0.0013
    Quadrupole Moments (Debye-Ang)
        XX     -39.3929     XY       0.0370     YY     -39.3784
        XZ       0.0083     YZ      -0.0826     ZZ     -39.0046
    Octopole Moments (Debye-Ang^2)
       XXX   -1220.9313    XXY    -456.2503    XYY    -402.8065
       YYY   -1377.7229    XXZ    -439.5217    XYZ      -0.4163
       YYZ    -443.2470    XZZ    -398.0849    YZZ    -454.8953
       ZZZ   -1311.5639
    Hexadecapole Moments (Debye-Ang^3)
      XXXX  -52127.2529   XXXY  -25912.3575   XXYY  -18274.5201
      XYYY  -25870.8573   YYYY  -58369.2327   XXXZ  -25391.9591
      XXYZ   -9394.2340   XYYZ   -8467.1520   YYYZ  -28367.1220
      XXZZ  -17738.9206   XYZZ   -8544.6739   YYZZ  -18957.1760
      XZZZ  -25054.8482   YZZZ  -28053.2054   ZZZZ  -55105.4766
 -----------------------------------------------------------------
 JobOver = TRUE
Archival summary:
1\1\sinatra\SP\ROProcedureUnspecified\6-31G*\e424(È)\nmayhall\FriMar2413:22:042017FriMar2413:22:042017\0\\#,ROProcedureUnspecified,6-31G*,\\0,25\H\H,1,1.81065\H,1,1.81086,2,60.0452\H,2,1.81131,1,60.0237,3,-70.5123,0\H,1,2.6459,2,127.132,3,-28.852,0\H,5,1.81039,1,161.062,2,-128.385,0\H,5,1.81121,1,114.496,2,162.928,0\H,7,1.8112,5,60.0005,1,89.002,0\H,1,2.69731,2,121.355,3,139.819,0\H,9,1.8111,1,129.028,2,-176.133,0\H,10,1.8108,9,60.0291,1,-15.5086,0\H,9,1.81133,1,105.539,2,120.091,0\He,2,14.6354,1,126.128,3,67.0984,0\He,2,14.8639,1,126.242,3,-178.626,0\He,10,15.0604,9,146.885,1,143.257,0\H,15,14.6354,10,166.775,9,21.8999,0\H,16,1.81065,15,126.128,10,164.569,0\H,17,1.81086,16,60.0452,15,67.0984,0\H,16,1.81131,15,144.227,10,-108.015,0\H,17,2.6459,16,127.132,15,38.2464,0\H,20,1.81039,17,161.062,16,-128.385,0\H,20,1.81121,17,114.496,16,162.928,0\H,22,1.8112,20,60.0005,17,89.002,0\H,17,2.69731,16,121.355,15,-153.083,0\H,24,1.8111,17,129.028,16,-176.133,0\H,25,1.8108,24,60.0291,17,-15.5086,0\H,24,1.81133,17,105.539,16,120.091,0\He,16,14.8639,15,85.3686,10,32.098,0\\HF=-22.9351496\\@

 Total job time:  1.55s(wall), 1.55s(cpu) 
 Fri Mar 24 13:22:04 2017

        *************************************************************
        *                                                           *
        *  Thank you very much for using Q-Chem.  Have a nice day.  *
        *                                                           *
        *************************************************************


*** MISSION COMPLETED -- STARFLEET OUT ***

