16
	Energy:    1421.3397774
Cl        -4.72748        3.24159        1.58146
Cl        -2.97948        3.22884        1.23229
Cl        -0.90585        3.17255        1.33482
Cl         0.81131        3.52536        1.07232
Cl         1.10421        1.48659        0.92194
Cl        -0.78888        1.10506        1.82115
Cl        -2.83805        1.17790        1.40604
Cl        -4.88838        1.16145        1.70395
Cl        -4.76865       -0.47365        1.04691
Cl        -2.87556       -0.09212        0.14770
Cl        -0.82639       -0.16497        0.56281
Cl         1.22394       -0.14852        0.26491
Cl         1.06304       -2.22866        0.38740
Cl        -0.68496       -2.21591        0.73657
Cl        -2.75859       -2.15962        0.63402
Cl        -4.47575       -2.51242        0.89651
