                  Welcome to Q-Chem
     A Quantum Leap Into The Future Of Chemistry


 Q-Chem 4.3, Q-Chem, Inc., Pleasanton, CA (2015)

 Y. Shao,  Z. Gan,  E. Epifanovsky,  A. T. B. Gilbert,  M. Wormit,  
 J. Kussmann,  A. W. Lange,  A. Behn,  J. Deng,  X. Feng,  D. Ghosh,  
 M. Goldey,  P. R. Horn,  L. D. Jacobson,  I. Kaliman,  R. Z. Khaliullin,  
 T. Kus,  A. Landau,  J. Liu,  E. I. Proynov,  Y. M. Rhee,  R. M. Richard,  
 M. A. Rohrdanz,  R. P. Steele,  E. J. Sundstrom,  H. L. Woodcock III,  
 P. M. Zimmerman,  D. Zuev,  B. Albrecht,  E. Alguire,  B. Austin,  
 S. A. Baeppler,  G. J. O. Beran,  Y. A. Bernard,  E. Berquist,  
 K. Brandhorst,  K. B. Bravaya,  S. T. Brown,  D. Casanova,  C.-M. Chang,  
 Y. Chen,  S. H. Chien,  K. D. Closser,  D. L. Crittenden,  M. Diedenhofen,  
 R. A. DiStasio Jr.,  H. Do,  A. D. Dutoi,  R. G. Edgar,  P.-T. Fang,  
 S. Fatehi,  Q. Feng,  L. Fusti-Molnar,  A. Ghysels,  
 A. Golubeva-Zadorozhnaya,  J. Gomes,  A. Gunina,  M. W. D. Hanson-Heine,  
 P. H. P. Harbach,  A. W. Hauser,  E. G. Hohenstein,  Z. C. Holden,  K. Hui,  
 T.-C. Jagau,  H. Ji,  B. Kaduk,  K. Khistyaev,  Jaehoon Kim,  Jihan Kim,  
 R. A. King,  P. Klunzinger,  D. Kosenkov,  T. Kowalczyk,  C. M. Krauter,  
 K. U. Lao,  A. Laurent,  K. V. Lawler,  S. Lehtola,  S. V. Levchenko,  
 C. Y. Lin,  Y.-S. Lin,  F. Liu,  E. Livshits,  R. C. Lochan,  A. Luenser,  
 P. Manohar,  S. F. Manzer,  S.-P. Mao,  N. Mardirossian,  A. V. Marenich,  
 L. A. Martinez-Martinez,  S. A. Maurer,  N. J. Mayhall,  K. Nanda,  
 C. M. Oana,  R. Olivares-Amaya,  D. P. O'Neill,  J. A. Parkhill,  
 T. M. Perrine,  R. Peverati,  P. A. Pieniazek,  F. Plasser,  A. Prociuk,  
 D. R. Rehn,  E. Rosta,  N. J. Russ,  N. Sergueev,  S. M. Sharada,  
 S. Sharma,  D. W. Small,  A. Sodt,  T. Stauch,  T. Stein,  D. Stuck,  
 Y.-C. Su,  A. J. W. Thom,  T. Tsuchimochi,  L. Vogt,  O. Vydrov,  T. Wang,  
 M. A. Watson,  J. Wenzel,  A. White,  C. F. Williams,  V. Vanovschi,  
 S. Yeganeh,  S. R. Yost,  Z.-Q. You,  I. Y. Zhang,  X. Zhang,  Y. Zhao,  
 B. R. Brooks,  G. K. L. Chan,  D. M. Chipman,  C. J. Cramer,  
 W. A. Goddard III,  M. S. Gordon,  W. J. Hehre,  A. Klamt,  
 H. F. Schaefer III,  M. W. Schmidt,  C. D. Sherrill,  D. G. Truhlar,  
 A. Warshel,  X. Xu,  A. Aspuru-Guzik,  R. Baer,  A. T. Bell,  N. A. Besley,  
 J.-D. Chai,  A. Dreuw,  B. D. Dunietz,  T. R. Furlani,  S. R. Gwaltney,  
 C.-P. Hsu,  Y. Jung,  J. Kong,  D. S. Lambrecht,  W. Liang,  C. Ochsenfeld,  
 V. A. Rassolov,  L. V. Slipchenko,  J. E. Subotnik,  T. Van Voorhis,  
 J. M. Herbert,  A. I. Krylov,  P. M. W. Gill,  M. Head-Gordon

 Contributors to earlier versions of Q-Chem not listed above: 
 R. D. Adamson,  J. Baker,  E. F. C. Byrd,  A. K. Chakraborty,  C.-L. Cheng,  
 H. Dachsel,  R. J. Doerksen,  G. Hawkins,  A. Heyden,  S. Hirata,  
 G. Kedziora,  F. J. Keil,  C. Kelley,  P. P. Korambath,  W. Kurlancheek,  
 A. M. Lee,  M. S. Lee,  D. Liotard,  I. Lotan,  P. E. Maslen,  N. Nair,  
 D. Neuhauser,  R. Olson,  B. Peters,  J. Ritchie,  N. E. Schultz,  
 N. Shenvi,  A. C. Simmonett,  K. S. Thanthiriwatte,  Q. Wu,  W. Zhang

 Please cite Q-Chem as follows:
 Y. Shao et al., Mol. Phys. 113, 184-215 (2015)
 DOI: 10.1080/00268976.2014.952696

 Q-Chem 4.3.0 for Intel X86 EM64T Linux

 Parts of Q-Chem use Armadillo 5.200.1 (Boston Tea Smuggler).
 http://arma.sourceforge.net/

 Q-Chem begins on Wed May 24 14:26:24 2017  


Host: 0

     Scratch files written to /home/nmayhall/scratch_qchem/b//
 Dec1416 |home|nmayhall|qcSoftware|qchem|qchem.svn-casman|libmdc|qstr_RNUM -1
 Using version located at /home/nmayhall/qcSoftware/qchem/qchem.svn-casman/bin/qchem


Total Memory Limit in MB = 2000
Mega-Array Size in MB = 62

Checking the input file for inconsistencies... 	...done.

 Q-Chem warning in module /home/nmayhall/qcSoftware/qchem/qchem.svn-casman/forms1/BasisType.C, line 1452:

 You are not using the predefined 5D/6D in this basis set.

Finally everything over in PARseQInput

--------------------------------------------------------------
User input:
--------------------------------------------------------------
$rem
	exchange 		hf
	unrestricted		1
	basis			6-31g	
	aux_basis		rimp2-vdz
	scf_guess		core	
	scf_convergence		8
	purecart		1111

	symmetry		0
	sym_ignore		1

	!correlation		sf-cas
	!cas_n_spin_flip		1
	!cas_local		1
	gui			2
$end

$development
	1sf_heis_projection	1
$end

$molecule
0 17
h        -4.72748        3.24159        1.58146
h        -2.97948        3.22884        1.23229
h        -0.90585        3.17255        1.33482
h         0.81131        3.52536        1.07232
h         1.10421        1.48659        0.92194
h        -0.78888        1.10506        1.82115
h        -2.83805        1.17790        1.40604
h        -4.88838        1.16145        1.70395
h        -4.76865       -0.47365        1.04691
h        -2.87556       -0.09212        0.14770
h        -0.82639       -0.16497        0.56281
h         1.22394       -0.14852        0.26491
h         1.06304       -2.22866        0.38740
h        -0.68496       -2.21591        0.73657
h        -2.75859       -2.15962        0.63402
h        -4.47575       -2.51242        0.89651
He	10	10	10	
He	-10	10	10	
$end


--------------------------------------------------------------
 ----------------------------------------------------------------
             Standard Nuclear Orientation (Angstroms)
    I     Atom           X                Y                Z
 ----------------------------------------------------------------
    1      H      -4.7274800000     3.2415900000     1.5814600000
    2      H      -2.9794800000     3.2288400000     1.2322900000
    3      H      -0.9058500000     3.1725500000     1.3348200000
    4      H       0.8113100000     3.5253600000     1.0723200000
    5      H       1.1042100000     1.4865900000     0.9219400000
    6      H      -0.7888800000     1.1050600000     1.8211500000
    7      H      -2.8380500000     1.1779000000     1.4060400000
    8      H      -4.8883800000     1.1614500000     1.7039500000
    9      H      -4.7686500000    -0.4736500000     1.0469100000
   10      H      -2.8755600000    -0.0921200000     0.1477000000
   11      H      -0.8263900000    -0.1649700000     0.5628100000
   12      H       1.2239400000    -0.1485200000     0.2649100000
   13      H       1.0630400000    -2.2286600000     0.3874000000
   14      H      -0.6849600000    -2.2159100000     0.7365700000
   15      H      -2.7585900000    -2.1596200000     0.6340200000
   16      H      -4.4757500000    -2.5124200000     0.8965100000
   17      He     10.0000000000    10.0000000000    10.0000000000
   18      He    -10.0000000000    10.0000000000    10.0000000000
 ----------------------------------------------------------------
 Nuclear Repulsion Energy =    20.5853480204 hartrees
 There are       18 alpha and        2 beta electrons
 Requested basis set is 6-31G
 There are 36 shells and 36 basis functions

Total QAlloc Memory Limit   2000 MB
Mega-Array Size        61 MB
MEM_STATIC part        62 MB

finished with qalloc call

 Q-Chem warning in module /home/nmayhall/qcSoftware/qchem/qchem.svn-casman/forms1/BasisType.C, line 1375:

 SAD: How to set up polarization functions for non-Pople basis?

 Requested basis set is rimp2-VDZ
 There are 106 shells and 242 basis functions
 Job number = 2, Threshold = 1.00E-11
Integral type ranges set in mkLRange.C for JobNum: 2  <1-7|1-7>
Symmetry turned off temporarily
 Using the largest function pair in Schwarz integrals
Total number of integrals generated =            1446
Symmetry turned back on
 A cutoff of  1.0D-11 yielded    492 shell pairs
 There are       492 function pairs
 Job number = 11, Threshold = 1.00E-11
Integral type ranges set in mkLRange.C for JobNum: 11  <1-1|8-8>

 -------------------------------------------------------
 OpenMP Integral Computing Module                       
 Release: version 1.0, May 2013, Q-Chem Inc. Pittsburgh 
 -------------------------------------------------------
 Integral Job Info:
 Integral job number is                      11
 Integral operator is                         1
 short-range coefficients                     0
 long-range coefficients              100000000
 Omega coefficients                           0
 if combine SR and LR in K                    0
 Integral screening is                        0
 Integral computing path is                   2
 max size of driver memory is            800000
 size of driver memory is                 11780
 size of scratch memory is               800000
 max col of scratch BK array                289
 max len of scratch array in speh3            1
 max len of scratch index in speh4            2
 max int batch size is                      520
 min int batch size is                       52
 fixed nKL is                               520
 max L of basis functions is                  0
 order of int derivative is                   0
 number of shells is                         36
 number of basis is                          36
 number of cartesian basis is                36
 number of contracted shell pairs           492
 number of primitive shell pairs           1310
 maxK2 (contraction) of shell pair            9
 max number of K2 of shell pair               1
 max number of CS2 of shell pair            240
 max number of PS2 of shell pair            720
 mem total for path MDJ                    7896
 -------------------------------------------------------
 Smallest overlap matrix eigenvalue = 1.03E-01
 Multipole matrices computed through 2nd order

  Scale SEOQF with 1.000000e-02/1.000000e-02/1.000000e-02

 Standard Electronic Orientation quadrupole field applied
 Nucleus-field energy     =     0.0000000008 hartrees
GuessMan:  IGuess = 1
 Guess MOs from core Hamiltonian diagonalization
scfman initvdwdat 
 An unrestricted Hartree-Fock SCF calculation will be
 performed using Pulay DIIS extrapolation
 SCF converges when DIIS error is below 1.0E-08
Finding J and K together
 Job number = 22, Threshold = 1.00E-11
Integral type ranges set in mkLRange.C for JobNum: 22  <1-1|1-1>
Storing 1499.19% of integrals
Total number of integrals generated =          103276
 MakeJK  time:  CPU       0.03 s  wall       0.03 s
Fock build time:  0.03 s (CPU) 0.03 s (wall)
DIIS Errors:  Max 3.66E-01 RMS 2.81E-02

Current DIIS subspace size = 1
REM_GRID_RESTART_DIIS = 0

 ---------------------------------------
  Cycle       Energy         DIIS Error
 ---------------------------------------
    1     -11.2092124029      2.81E-02  00000
Finding J and K together
 Job number = 22, Threshold = 1.00E-11
Integral type ranges set in mkLRange.C for JobNum: 22  <1-1|1-1>
Storing 1499.19% of integrals
Reusing in-core integrals buffer for job 22
 MakeJK  time:  CPU       0.00 s  wall       0.01 s
Fock build time:  0.00 s (CPU) 0.01 s (wall)
DIIS Errors:  Max 2.54E-01 RMS 1.53E-02

Current DIIS subspace size = 2
REM_GRID_RESTART_DIIS = 0

    2     -13.3037361961      1.53E-02  00000
Finding J and K together
 Job number = 22, Threshold = 1.00E-11
Integral type ranges set in mkLRange.C for JobNum: 22  <1-1|1-1>
Storing 1499.19% of integrals
Reusing in-core integrals buffer for job 22
 MakeJK  time:  CPU       0.00 s  wall       0.01 s
Fock build time:  0.00 s (CPU) 0.01 s (wall)
DIIS Errors:  Max 9.29E-02 RMS 5.89E-03

Current DIIS subspace size = 3
REM_GRID_RESTART_DIIS = 0

    3     -13.3790909733      5.89E-03  00000
Finding J and K together
 Job number = 22, Threshold = 1.00E-11
Integral type ranges set in mkLRange.C for JobNum: 22  <1-1|1-1>
Storing 1499.19% of integrals
Reusing in-core integrals buffer for job 22
 MakeJK  time:  CPU       0.00 s  wall       0.01 s
Fock build time:  0.00 s (CPU) 0.01 s (wall)
DIIS Errors:  Max 8.55E-03 RMS 6.61E-04

Current DIIS subspace size = 4
REM_GRID_RESTART_DIIS = 0

    4     -13.4062252654      6.61E-04  00000
Finding J and K together
 Job number = 22, Threshold = 1.00E-11
Integral type ranges set in mkLRange.C for JobNum: 22  <1-1|1-1>
Storing 1499.19% of integrals
Reusing in-core integrals buffer for job 22
 MakeJK  time:  CPU       0.00 s  wall       0.01 s
Fock build time:  0.00 s (CPU) 0.01 s (wall)
DIIS Errors:  Max 1.45E-04 RMS 9.45E-06

Current DIIS subspace size = 5
REM_GRID_RESTART_DIIS = 0

    5     -13.4087323070      9.45E-06  00000
Finding J and K together
 Job number = 22, Threshold = 1.00E-11
Integral type ranges set in mkLRange.C for JobNum: 22  <1-1|1-1>
Storing 1499.19% of integrals
Reusing in-core integrals buffer for job 22
 MakeJK  time:  CPU       0.00 s  wall       0.01 s
Fock build time:  0.00 s (CPU) 0.01 s (wall)
DIIS Errors:  Max 1.84E-05 RMS 1.10E-06

Current DIIS subspace size = 6
REM_GRID_RESTART_DIIS = 0

    6     -13.4088501544      1.10E-06  00000
Finding J and K together
 Job number = 22, Threshold = 1.00E-11
Integral type ranges set in mkLRange.C for JobNum: 22  <1-1|1-1>
Storing 1499.19% of integrals
Reusing in-core integrals buffer for job 22
 MakeJK  time:  CPU       0.01 s  wall       0.01 s
Fock build time:  0.01 s (CPU) 0.01 s (wall)
DIIS Errors:  Max 2.02E-06 RMS 1.35E-07

Current DIIS subspace size = 7
REM_GRID_RESTART_DIIS = 0

    7     -13.4088633312      1.35E-07  00000
Finding J and K together
 Job number = 22, Threshold = 1.00E-11
Integral type ranges set in mkLRange.C for JobNum: 22  <1-1|1-1>
Storing 1499.19% of integrals
Reusing in-core integrals buffer for job 22
 MakeJK  time:  CPU       0.01 s  wall       0.01 s
Fock build time:  0.01 s (CPU) 0.01 s (wall)
DIIS Errors:  Max 2.42E-07 RMS 1.40E-08

Current DIIS subspace size = 8
REM_GRID_RESTART_DIIS = 0

    8     -13.4088663501      1.40E-08  00000
Finding J and K together
 Job number = 22, Threshold = 1.00E-11
Integral type ranges set in mkLRange.C for JobNum: 22  <1-1|1-1>
Storing 1499.19% of integrals
Reusing in-core integrals buffer for job 22
 MakeJK  time:  CPU       0.01 s  wall       0.01 s
Fock build time:  0.01 s (CPU) 0.01 s (wall)
DIIS Errors:  Max 1.07E-08 RMS 6.06E-10

Current DIIS subspace size = 9
REM_GRID_RESTART_DIIS = 0

    9     -13.4088665458      6.06E-10  00000 Convergence criterion met
 ---------------------------------------
 <S^2> = 72.0000
 SCF time:  CPU 0.09 s  wall 0.10 s
 SCF   energy in the final basis set = -13.4088665458
 Total energy in the final basis set = -13.4088665458
Symmetry turned off temporarily
 Analysis of SCF Wavefunction

 --------------------------------------------------------------

                    Orbital Energies (a.u.)
 --------------------------------------------------------------

 Alpha MOs
 -- Occupied --
 -0.914  -0.914  -0.693  -0.647  -0.630  -0.588  -0.581  -0.571
 -0.538  -0.514  -0.491  -0.469  -0.438  -0.432  -0.421  -0.374
 -0.369  -0.323
 -- Virtual --
  0.916   0.919   0.928   0.934   0.949   0.957   0.992   1.006
  1.013   1.014   1.050   1.073   1.091   1.103   1.143   1.171
  1.400   1.400

 Beta MOs
 -- Occupied --
 -0.914  -0.914
 -- Virtual --
 -0.051  -0.010   0.003   0.040   0.058   0.065   0.097   0.126
  0.135   0.172   0.183   0.206   0.215   0.263   0.270   0.326
  1.138   1.141   1.149   1.159   1.167   1.175   1.198   1.211
  1.214   1.223   1.248   1.261   1.282   1.290   1.312   1.355
  1.400   1.400
 --------------------------------------------------------------

          Ground-State Mulliken Net Atomic Charges

     Atom                 Charge (a.u.)    Spin (a.u.)
  --------------------------------------------------------
      1 H                    -0.000091       1.000091
      2 H                     0.000190       0.999810
      3 H                     0.000290       0.999710
      4 H                    -0.000160       1.000160
      5 H                     0.000097       0.999903
      6 H                    -0.000261       1.000261
      7 H                    -0.000179       1.000179
      8 H                     0.000114       0.999886
      9 H                     0.000097       0.999903
     10 H                    -0.000261       1.000261
     11 H                    -0.000179       1.000179
     12 H                     0.000114       0.999886
     13 H                    -0.000091       1.000091
     14 H                     0.000190       0.999810
     15 H                     0.000290       0.999710
     16 H                    -0.000160       1.000160
     17 He                    0.000000       0.000000
     18 He                    0.000000      -0.000000
  --------------------------------------------------------
  Sum of atomic charges =     0.000000
  Sum of spin   charges =    16.000000

 -----------------------------------------------------------------
                    Cartesian Multipole Moments
 -----------------------------------------------------------------
    Charge (ESU x 10^10)
                 0.0000
    Dipole Moment (Debye)
         X       0.0000      Y       0.0000      Z       0.0000
       Tot       0.0000
    Quadrupole Moments (Debye-Ang)
        XX     -27.1206     XY      -0.1081     YY     -26.6126
        XZ       0.6031     YZ      -0.8014     ZZ     -22.9343
    Octopole Moments (Debye-Ang^2)
       XXX     137.6130    XXY     -33.1318    XYY      44.8307
       YYY     -99.8123    XXZ     -47.7042    XYZ       1.6674
       YYZ     -45.8057    XZZ      39.3883    YZZ     -32.9856
       ZZZ    -124.1189
    Hexadecapole Moments (Debye-Ang^3)
      XXXX   -2438.5711   XXXY      69.2979   XXYY    -747.6268
      XYYY      59.2173   YYYY   -1879.0498   XXXZ     181.1267
      XXYZ    -245.0046   XYYZ      59.3298   YYYZ    -702.0301
      XXZZ    -628.1487   XYZZ      23.6748   YYZZ    -545.4267
      XZZZ     140.7623   YZZZ    -695.5508   ZZZZ   -1426.2235
 -----------------------------------------------------------------
 JobOver = TRUE
Archival summary:
1\1\sinatra\SP\HF\6-31G\e216(\nmayhall\WedMay2414:26:242017WedMay2414:26:242017\0\\#,HF,6-31G,\\0,17\H\H,1,1.78823\H,1,2.06314,2,130.189\H,3,1.78258,1,93.3156,2,-96.4011,0\H,1,2.07193,2,94.2887,3,-90.0318,0\H,5,1.76624,1,83.4991,2,-23.3915,0\H,6,2.06519,5,161.919,1,-83.4166,0\H,7,1.77257,6,87.231,5,86.7498,0\H,3,2.07693,1,84.2872,2,97.6103,0\H,9,1.77257,3,162.649,1,-143.629,0\H,10,2.06518,9,87.2307,3,135.068,0\H,11,1.76624,10,161.919,9,-86.7501,0\H,12,2.07192,11,83.4992,10,83.4164,0\H,13,1.78824,12,94.2885,11,23.3916,0\H,13,2.06314,12,87.2582,11,153.503,0\H,15,1.78258,13,93.3155,12,3.10214,0\He,4,12.0145,3,124.863,1,-127.372,0\He,10,14.3547,9,128.154,3,-106.833,0\\HF=-13.4088665\\@

 Total job time:  0.16s(wall), 0.15s(cpu) 
 Wed May 24 14:26:24 2017

        *************************************************************
        *                                                           *
        *  Thank you very much for using Q-Chem.  Have a nice day.  *
        *                                                           *
        *************************************************************


*** MISSION COMPLETED -- STARFLEET OUT ***

 
User input: 2 of 2 
 
                  Welcome to Q-Chem
     A Quantum Leap Into The Future Of Chemistry


 Q-Chem 4.3, Q-Chem, Inc., Pleasanton, CA (2015)

 Y. Shao,  Z. Gan,  E. Epifanovsky,  A. T. B. Gilbert,  M. Wormit,  
 J. Kussmann,  A. W. Lange,  A. Behn,  J. Deng,  X. Feng,  D. Ghosh,  
 M. Goldey,  P. R. Horn,  L. D. Jacobson,  I. Kaliman,  R. Z. Khaliullin,  
 T. Kus,  A. Landau,  J. Liu,  E. I. Proynov,  Y. M. Rhee,  R. M. Richard,  
 M. A. Rohrdanz,  R. P. Steele,  E. J. Sundstrom,  H. L. Woodcock III,  
 P. M. Zimmerman,  D. Zuev,  B. Albrecht,  E. Alguire,  B. Austin,  
 S. A. Baeppler,  G. J. O. Beran,  Y. A. Bernard,  E. Berquist,  
 K. Brandhorst,  K. B. Bravaya,  S. T. Brown,  D. Casanova,  C.-M. Chang,  
 Y. Chen,  S. H. Chien,  K. D. Closser,  D. L. Crittenden,  M. Diedenhofen,  
 R. A. DiStasio Jr.,  H. Do,  A. D. Dutoi,  R. G. Edgar,  P.-T. Fang,  
 S. Fatehi,  Q. Feng,  L. Fusti-Molnar,  A. Ghysels,  
 A. Golubeva-Zadorozhnaya,  J. Gomes,  A. Gunina,  M. W. D. Hanson-Heine,  
 P. H. P. Harbach,  A. W. Hauser,  E. G. Hohenstein,  Z. C. Holden,  K. Hui,  
 T.-C. Jagau,  H. Ji,  B. Kaduk,  K. Khistyaev,  Jaehoon Kim,  Jihan Kim,  
 R. A. King,  P. Klunzinger,  D. Kosenkov,  T. Kowalczyk,  C. M. Krauter,  
 K. U. Lao,  A. Laurent,  K. V. Lawler,  S. Lehtola,  S. V. Levchenko,  
 C. Y. Lin,  Y.-S. Lin,  F. Liu,  E. Livshits,  R. C. Lochan,  A. Luenser,  
 P. Manohar,  S. F. Manzer,  S.-P. Mao,  N. Mardirossian,  A. V. Marenich,  
 L. A. Martinez-Martinez,  S. A. Maurer,  N. J. Mayhall,  K. Nanda,  
 C. M. Oana,  R. Olivares-Amaya,  D. P. O'Neill,  J. A. Parkhill,  
 T. M. Perrine,  R. Peverati,  P. A. Pieniazek,  F. Plasser,  A. Prociuk,  
 D. R. Rehn,  E. Rosta,  N. J. Russ,  N. Sergueev,  S. M. Sharada,  
 S. Sharma,  D. W. Small,  A. Sodt,  T. Stauch,  T. Stein,  D. Stuck,  
 Y.-C. Su,  A. J. W. Thom,  T. Tsuchimochi,  L. Vogt,  O. Vydrov,  T. Wang,  
 M. A. Watson,  J. Wenzel,  A. White,  C. F. Williams,  V. Vanovschi,  
 S. Yeganeh,  S. R. Yost,  Z.-Q. You,  I. Y. Zhang,  X. Zhang,  Y. Zhao,  
 B. R. Brooks,  G. K. L. Chan,  D. M. Chipman,  C. J. Cramer,  
 W. A. Goddard III,  M. S. Gordon,  W. J. Hehre,  A. Klamt,  
 H. F. Schaefer III,  M. W. Schmidt,  C. D. Sherrill,  D. G. Truhlar,  
 A. Warshel,  X. Xu,  A. Aspuru-Guzik,  R. Baer,  A. T. Bell,  N. A. Besley,  
 J.-D. Chai,  A. Dreuw,  B. D. Dunietz,  T. R. Furlani,  S. R. Gwaltney,  
 C.-P. Hsu,  Y. Jung,  J. Kong,  D. S. Lambrecht,  W. Liang,  C. Ochsenfeld,  
 V. A. Rassolov,  L. V. Slipchenko,  J. E. Subotnik,  T. Van Voorhis,  
 J. M. Herbert,  A. I. Krylov,  P. M. W. Gill,  M. Head-Gordon

 Contributors to earlier versions of Q-Chem not listed above: 
 R. D. Adamson,  J. Baker,  E. F. C. Byrd,  A. K. Chakraborty,  C.-L. Cheng,  
 H. Dachsel,  R. J. Doerksen,  G. Hawkins,  A. Heyden,  S. Hirata,  
 G. Kedziora,  F. J. Keil,  C. Kelley,  P. P. Korambath,  W. Kurlancheek,  
 A. M. Lee,  M. S. Lee,  D. Liotard,  I. Lotan,  P. E. Maslen,  N. Nair,  
 D. Neuhauser,  R. Olson,  B. Peters,  J. Ritchie,  N. E. Schultz,  
 N. Shenvi,  A. C. Simmonett,  K. S. Thanthiriwatte,  Q. Wu,  W. Zhang

 Please cite Q-Chem as follows:
 Y. Shao et al., Mol. Phys. 113, 184-215 (2015)
 DOI: 10.1080/00268976.2014.952696

 Q-Chem 4.3.0 for Intel X86 EM64T Linux

 Parts of Q-Chem use Armadillo 5.200.1 (Boston Tea Smuggler).
 http://arma.sourceforge.net/

 Q-Chem begins on Wed May 24 14:26:24 2017  


Host: 0

     Scratch files written to /home/nmayhall/scratch_qchem/b//
 Dec1416 |home|nmayhall|qcSoftware|qchem|qchem.svn-casman|libmdc|qstr_RNUM -1
 Using version located at /home/nmayhall/qcSoftware/qchem/qchem.svn-casman/bin/qchem

 Turning off symmetry for CASMAN

Total Memory Limit in MB = 2000
Mega-Array Size in MB = 62

Checking the input file for inconsistencies... 	...done.

 Q-Chem warning in module /home/nmayhall/qcSoftware/qchem/qchem.svn-casman/forms1/BasisType.C, line 1452:

 You are not using the predefined 5D/6D in this basis set.

Finally everything over in PARseQInput

--------------------------------------------------------------
User input:
--------------------------------------------------------------
$rem
	exchange 		hf
	unrestricted		0
	basis			6-31g	
	aux_basis		rimp2-vdz
	scf_guess		read	
	scf_convergence		8
	purecart		1111

	symmetry		0
	sym_ignore		1

	correlation		sf-cas
	cas_n_spin_flip		1
	cas_local		1
	gui			2
$end

$development
	1sf_heis_projection	1
	scf_corresponding_orbs	1
        heisenberg_n_roots	1
$end

$molecule
read
$end

--------------------------------------------------------------
 ----------------------------------------------------------------
             Standard Nuclear Orientation (Angstroms)
    I     Atom           X                Y                Z
 ----------------------------------------------------------------
    1      H      -4.7274800000     3.2415900000     1.5814600000
    2      H      -2.9794800000     3.2288400000     1.2322900000
    3      H      -0.9058500000     3.1725500000     1.3348200000
    4      H       0.8113100000     3.5253600000     1.0723200000
    5      H       1.1042100000     1.4865900000     0.9219400000
    6      H      -0.7888800000     1.1050600000     1.8211500000
    7      H      -2.8380500000     1.1779000000     1.4060400000
    8      H      -4.8883800000     1.1614500000     1.7039500000
    9      H      -4.7686500000    -0.4736500000     1.0469100000
   10      H      -2.8755600000    -0.0921200000     0.1477000000
   11      H      -0.8263900000    -0.1649700000     0.5628100000
   12      H       1.2239400000    -0.1485200000     0.2649100000
   13      H       1.0630400000    -2.2286600000     0.3874000000
   14      H      -0.6849600000    -2.2159100000     0.7365700000
   15      H      -2.7585900000    -2.1596200000     0.6340200000
   16      H      -4.4757500000    -2.5124200000     0.8965100000
   17      He     10.0000000000    10.0000000000    10.0000000000
   18      He    -10.0000000000    10.0000000000    10.0000000000
 ----------------------------------------------------------------
 Nuclear Repulsion Energy =    20.5853480204 hartrees
 There are       18 alpha and        2 beta electrons
 Requested basis set is 6-31G
 There are 36 shells and 36 basis functions

Total QAlloc Memory Limit   2000 MB
Mega-Array Size        61 MB
MEM_STATIC part        62 MB

finished with qalloc call

 Q-Chem warning in module /home/nmayhall/qcSoftware/qchem/qchem.svn-casman/forms1/BasisType.C, line 1375:

 SAD: How to set up polarization functions for non-Pople basis?

 Requested basis set is rimp2-VDZ
 There are 106 shells and 242 basis functions
 Job number = 2, Threshold = 1.00E-12
Integral type ranges set in mkLRange.C for JobNum: 2  <1-7|1-7>
Symmetry turned off temporarily
 Using the largest function pair in Schwarz integrals
Total number of integrals generated =            1446
Symmetry turned back on
 A cutoff of  1.0D-12 yielded    492 shell pairs
 There are       492 function pairs
 Job number = 11, Threshold = 1.00E-12
Integral type ranges set in mkLRange.C for JobNum: 11  <1-1|8-8>

 -------------------------------------------------------
 OpenMP Integral Computing Module                       
 Release: version 1.0, May 2013, Q-Chem Inc. Pittsburgh 
 -------------------------------------------------------
 Integral Job Info:
 Integral job number is                      11
 Integral operator is                         1
 short-range coefficients                     0
 long-range coefficients              100000000
 Omega coefficients                           0
 if combine SR and LR in K                    0
 Integral screening is                        0
 Integral computing path is                   2
 max size of driver memory is            800000
 size of driver memory is                 11780
 size of scratch memory is               800000
 max col of scratch BK array                289
 max len of scratch array in speh3            1
 max len of scratch index in speh4            2
 max int batch size is                      520
 min int batch size is                       52
 fixed nKL is                               520
 max L of basis functions is                  0
 order of int derivative is                   0
 number of shells is                         36
 number of basis is                          36
 number of cartesian basis is                36
 number of contracted shell pairs           492
 number of primitive shell pairs           1316
 maxK2 (contraction) of shell pair            9
 max number of K2 of shell pair               1
 max number of CS2 of shell pair            242
 max number of PS2 of shell pair            726
 mem total for path MDJ                    7920
 -------------------------------------------------------
 Smallest overlap matrix eigenvalue = 1.03E-01
 Multipole matrices computed through 2nd order

  Scale SEOQF with 1.000000e-02/1.000000e-02/1.000000e-02

 Standard Electronic Orientation quadrupole field applied
 Nucleus-field energy     =     0.0000000008 hartrees
GuessMan:  IGuess = 1000
 Guess MOs from SCF MO coefficient file
 Reading MOs from coefficient file
 Size of previous SCF MO coefficient file: 2664 (expected); 34060 (actual). 

 Q-Chem warning in module /home/nmayhall/qcSoftware/qchem/qchem.svn-casman/gesman/GuessMan.C, line 672:

 Inconsistent size for SCF MO coefficient file.  Please check basis and PURECART setting.

 Reading MOs from coefficient file
scfman initvdwdat 
 A restricted Hartree-Fock SCF calculation will be
 performed using Geometric Direct Minimization
 SCF converges when RMS gradient is below 1.0E-08
Finding J and K together
 Job number = 22, Threshold = 1.00E-12
Integral type ranges set in mkLRange.C for JobNum: 22  <1-1|1-1>
Storing 1499.19% of integrals
Total number of integrals generated =          108256
 MakeJK  time:  CPU       0.03 s  wall       0.03 s
Fock build time:  0.03 s (CPU) 0.03 s (wall)
 ---------------------------------------
  Cycle       Energy        RMS Gradient
 ---------------------------------------
    1     -13.4088665740      9.98E-05  00000 Normal BFGS step
Finding J and K together
 Job number = 22, Threshold = 1.00E-12
Integral type ranges set in mkLRange.C for JobNum: 22  <1-1|1-1>
Storing 1499.19% of integrals
Reusing in-core integrals buffer for job 22
 MakeJK  time:  CPU       0.00 s  wall       0.01 s
Fock build time:  0.00 s (CPU) 0.01 s (wall)
    2     -13.4088665792      4.67E-10  00000 Convergence criterion met
 ---------------------------------------
 SCF time:  CPU 0.04 s  wall 0.04 s
 Obtaining Corresponding orbitals

 Forming corresponding orbitals block-by-block...
 Size of singly occupied alpha block:      16 : 16.0000
 Size of doubly occupied block:             2 : 2.0000
 Size of singly occupied beta block:        0 : 0.0000
 Size of unoccupied block:                 18 : 18.0000
 Use scf_boys =     0 (Canonical)
                    1 (Boys)
                    2 (Pipek-Mezey)
                    3 (ER)
 Build new fock matrix
 I'm here
 I'm here
 Calling AOints...
 Job number = 22, Threshold = 1.00E-12
Integral type ranges set in mkLRange.C for JobNum: 22  <1-1|1-1>
Storing 1499.19% of integrals
 done.
 E(SCF): disk=    -13.408866579249 current=    -13.408866579249 diff=  -1.776e-15
 SCF   energy in the final basis set = -13.4088665792
 Total energy in the final basis set = -13.4088665792
 DevKeyword Parameters: 
 1sf_heis_projection                   1
  heisenberg_n_roots                   1
scf_corresponding_orbs                   1


 ========================================================
                       In SF-CAS-CI                      
 ========================================================
 DevKeyword Parameters: 
 1sf_heis_projection                   1
  heisenberg_n_roots                   1
scf_corresponding_orbs                   1

 Forming orbitals for SF-CAS calculation.
NBas   : 36
NOrb   : 36
NDOcc  : 2
NSOcc  : 16
NDVir  : 18
ISpin  : 0
e_hf: -13.40886658
 Using OPT1 Orbitals: Favg | Favg | Favg 
 A/B mix in Doubly occupied F  : 0.50000000
 A/B mix in Singly occupied F  : 0.50000000
 A/B mix in Doubly unoccupied F: 0.50000000
 Max of F(beta)ds      : 3.827e-16
 Max of F(alpha)sv     : 8.744e-13
 Max of F(average)dv   : 2.686e-11
 Orbital Energies  (D):
    1    -0.91411184    -0.91411184
    2    -0.91408534    -0.91408534
 Orbital Energies  (S):
    3    -0.35592261    -0.35592261
    4    -0.31207338    -0.31207338
    5    -0.29643506    -0.29643506
    6    -0.25673642    -0.25673642
    7    -0.24535022    -0.24535022
    8    -0.23636005    -0.23636005
    9    -0.20415825    -0.20415825
   10    -0.17489711    -0.17489711
   11    -0.16312538    -0.16312538
   12    -0.13356191    -0.13356191
   13    -0.10957631    -0.10957631
   14    -0.09694693    -0.09694693
   15    -0.08741308    -0.08741308
   16    -0.03981570    -0.03981570
   17    -0.03472612    -0.03472612
   18     0.01552458     0.01552458
 Orbital Energies  (V):
   19     1.00850452     1.00850452
   20     1.01218162     1.01218162
   21     1.02077876     1.02077876
   22     1.02871684     1.02871684
   23     1.04216431     1.04216431
   24     1.04954806     1.04954806
   25     1.07780462     1.07780462
   26     1.09240263     1.09240263
   27     1.09664282     1.09664282
   28     1.10233849     1.10233849
   29     1.13286040     1.13286040
   30     1.15142685     1.15142685
   31     1.17137390     1.17137390
   32     1.18164137     1.18164137
   33     1.21330098     1.21330098
   34     1.24977330     1.24977330
   35     1.39987412     1.39987412
   36     1.39990062     1.39990062
 tr(Pa)     :   18.0000000000
 tr(Pb)     :    2.0000000000
 E(core) with new P : -56.25282888
 E(HF) with new P   : -13.40886658
 Difference in Ehf  :   4.7962e-14

 Number of spin flips: 1
 Use cas_local =    0 (Canonical)
                    1 (Boys)
                    2 (Pipek-Mezey)
                    3 (ER)
 Using Boys orbitals in casman
 
 
 
Calling Get_Boys in C++
 
 
 
Orbital 1 Variance 21.24128234
Orbital 8 Variance 21.47778634
Orbital 10 Variance 23.50185045
Orbital 16 Variance 29.85762532
Orbital 2 Variance 33.77999986
Orbital 13 Variance 34.14817337
Orbital 5 Variance 34.15382299
Orbital 12 Variance 34.94454467
Orbital 6 Variance 35.83706623
Orbital 3 Variance 36.68162002
Orbital 15 Variance 40.35908833
Orbital 14 Variance 41.02377133
Orbital 9 Variance 43.41411415
Orbital 7 Variance 46.33155690
Orbital 4 Variance 46.75394235
Orbital 11 Variance 49.28188618
          ***** NUMBER OF SADDLE POINTS SO FAR = 0 ******

Initially in boys_jacobi.C before sweep, get_boys, boysval = 261.837981
In BOYS_JACOBI SWEEPS for get_boys, ending in round     6  because max_diff = 6.490824e-07


---> BEGIN 2nd Der Calculation    ******  
Guessing MaxD =  20 and MinD = 10
in get_boys.C: p = 0 guessthresh  47.9541668280 numsofar 4 MinD 10
DimInGuess 4 mineval  46.9541668280 guessthresh  47.9541668280
round 0 sizeofsub 4 eval0 4.695417e+01 diffeval0 1.000460e+05 length_qM 3.078992e-01 thresh 1.000000e-08
round 1 sizeofsub 5 eval0 4.695259e+01 diffeval0 1.575306e-03 length_qM 2.899961e-03 thresh 1.000000e-08
round 2 sizeofsub 6 eval0 4.695259e+01 diffeval0 2.967955e-07 length_qM 8.931893e-05 thresh 1.000000e-08
round 3 sizeofsub 7 eval0 4.695259e+01 diffeval0 1.591189e-10 length_qM 2.276782e-06 thresh 1.000000e-08
round 4 sizeofsub 8 eval0 4.695259e+01 diffeval0 2.344791e-13 length_qM 5.270291e-07 thresh 1.000000e-08
Converged to smallest eigenvalue: eval0 4.695259e+01

Success!!! No Negative Eigenvalues: Ending Get Boys in C++ ...Bye Bye
Orbital 13 Variance 2.66341273
Orbital 10 Variance 2.66341329
Orbital 16 Variance 2.67663493
Orbital 14 Variance 2.67663493
Orbital 12 Variance 2.69290208
Orbital 11 Variance 2.69290224
Orbital 6 Variance 2.69687296
Orbital 9 Variance 2.69687334
Orbital 5 Variance 2.69742255
Orbital 8 Variance 2.69742300
Orbital 15 Variance 2.69965251
Orbital 7 Variance 2.69965285
Orbital 1 Variance 2.74167604
Orbital 4 Variance 2.74167611
Orbital 3 Variance 2.74187479
Orbital 2 Variance 2.74187507
EXECUTING ORTHO_FUNC DESTRUCTOR

 Dimensions of orbital sub-spaces:    
 Number Hole Orbs:Alpha:Beta:       2    2    2
 Number Active Orbs:Alpha:Beta:    16   15    1
 Number Part Orbs:Alpha:Beta:      18    0    0

 Dimensions in SF-RAS-hp calculation: 
 Number of active space determinants:  256
 Number of hole space determinants:    3872
 Number of part space determinants:    34848
 Number of hole-part determinants:     536868
 Total 1x space:                       38976
 Total singles space:                  575844
 REM_MEM_TOT: 2000
 Memory Used: 0
 Memory Left: 2000
 Memory Need: 4
 Constructing 1e MO integrals
 Form (P|Q)**(-1/2)...
 Job number = 66, Threshold = 1.00E-12
Integral type ranges set in mkLRange.C for JobNum: 66  <2-7|2-7>
Symmetry turned off temporarily
Storing 1499.19% of integrals
Total number of integrals generated =           33759
Symmetry turned back on
 Forming (pq|P)...
 Forming Active-Active (aa|P) integrals...

 Entering first-index batching code with I1Strt =    3 batch size =   16
 Job number = 65, Threshold = 1.00E-12
Integral type ranges set in mkLRange.C for JobNum: 65  <1-1|2-7>
Symmetry turned off temporarily
Storing 1499.19% of integrals
Total number of integrals generated =          126936
Symmetry turned back on
 Forming Active-Active B integrals...
 Contracting B matrices to form 2e integrals. 
 Forming 2J-K over o,v with exact integrals
 Calling AOints... Job number = 22, Threshold = 1.00E-12
Integral type ranges set in mkLRange.C for JobNum: 22  <1-1|1-1>
Storing 1499.19% of integrals
Total number of integrals generated =          108256
 done.

 ROHF energy found on disk: 
 E(ROHF):         -13.40886658
-13.40886658
 First 10 Diagonal elements of H: 
 111111111111111_ | 1_______________        -12.85600658
 111111111111111_ | _1______________        -12.91197860
 111111111111111_ | __1_____________        -12.83832558
 111111111111111_ | ___1____________        -12.86740399
 111111111111111_ | ____1___________        -12.97972975
 111111111111111_ | _____1__________        -12.86354763
 111111111111111_ | ______1_________        -12.98177535
 111111111111111_ | _______1________        -12.86601022
 111111111111111_ | ________1_______        -12.91736882
 111111111111111_ | _________1______        -13.01711576
 Fill S2_CAS Matrix...  done.
 Fill H_CAS Matrix...  done.

 Diagonalizing H_CAS 
 Entering cast_sfcas_to_sfcis
 ===================================================================
 Theory           State:          Energy (au)       (eV)       <S2>
 -------------------------------------------------------------------
 SF-CAS               1:       -13.5032849293     0.0000    56.0000
 SF-CAS               2:       -13.4910007895     0.3343    56.0000
 SF-CAS               3:       -13.4832748793     0.5445    56.0000
 SF-CAS               4:       -13.4762427283     0.7359    56.0000
 SF-CAS               5:       -13.4737180446     0.8046    56.0000
 SF-CAS               6:       -13.4708956777     0.8814    56.0000
 SF-CAS               7:       -13.4659581967     1.0157    56.0000
 SF-CAS               8:       -13.4624474938     1.1113    56.0000
 SF-CAS               9:       -13.4472306435     1.5253    56.0000
 SF-CAS              10:       -13.4384832318     1.7634    56.0000
 SF-CAS              11:       -13.4345049618     1.8716    56.0000
 SF-CAS              12:       -13.4293861683     2.0109    56.0000
 SF-CAS              13:       -13.4276163180     2.0591    56.0000
 SF-CAS              14:       -13.4173791805     2.3376    56.0000
 SF-CAS              15:       -13.4165856157     2.3592    56.0000
 SF-CAS              16:       -13.4088665792     2.5693    72.0000
 SF-CAS              17:       -13.2114120239     7.9423    56.0000
 SF-CAS              18:       -13.2078944176     8.0381    56.0000
 SF-CAS              19:       -13.2072207921     8.0564    56.0000
 SF-CAS              20:       -13.1747932722     8.9388    56.0000
 SF-CAS              21:       -13.1736887455     8.9689    56.0000
 SF-CAS              22:       -13.1722961535     9.0068    56.0000
 SF-CAS              23:       -13.1701906847     9.0640    56.0000
 SF-CAS              24:       -13.1695981957     9.0802    56.0000
 SF-CAS              25:       -13.1613502310     9.3046    56.0000
 SF-CAS              26:       -13.1504488777     9.6013    56.0000
 SF-CAS              27:       -13.1423119839     9.8227    56.0000
 SF-CAS              28:       -13.1380681397     9.9382    56.0000
 SF-CAS              29:       -13.1328586874    10.0799    56.0000
 SF-CAS              30:       -13.1301641463    10.1532    56.0000
 SF-CAS              31:       -13.1274306779    10.2276    56.0000
 SF-CAS              32:       -13.1252488738    10.2870    56.0000
 SF-CAS              33:       -13.1167317680    10.5187    56.0000
 SF-CAS              34:       -13.1164537041    10.5263    56.0000
 SF-CAS              35:       -13.1128411810    10.6246    56.0000
 SF-CAS              36:       -13.1106709918    10.6837    56.0000
 SF-CAS              37:       -13.1027596014    10.8990    56.0000
 SF-CAS              38:       -13.1007231913    10.9544    56.0000
 SF-CAS              39:       -13.0940304963    11.1365    56.0000
 SF-CAS              40:       -13.0902273357    11.2400    56.0000
 SF-CAS              41:       -13.0860994153    11.3523    56.0000
 SF-CAS              42:       -13.0846790110    11.3910    56.0000
 SF-CAS              43:       -13.0834814097    11.4235    56.0000
 SF-CAS              44:       -13.0803841143    11.5078    56.0000
 SF-CAS              45:       -13.0747868406    11.6601    56.0000
 SF-CAS              46:       -13.0742525141    11.6747    56.0000
 SF-CAS              47:       -13.0731272781    11.7053    56.0000
 SF-CAS              48:       -13.0716091819    11.7466    56.0000
 SF-CAS              49:       -13.0707108658    11.7711    56.0000
 SF-CAS              50:       -13.0699241552    11.7925    56.0000
 SF-CAS              51:       -13.0698971486    11.7932    56.0000
 SF-CAS              52:       -13.0627325650    11.9882    56.0000
 SF-CAS              53:       -13.0547286680    12.2060    56.0000
 SF-CAS              54:       -13.0500387644    12.3336    56.0000
 SF-CAS              55:       -13.0488808748    12.3651    56.0000
 SF-CAS              56:       -13.0478937802    12.3919    56.0000
 SF-CAS              57:       -13.0472298222    12.4100    56.0000
 SF-CAS              58:       -13.0412276310    12.5733    56.0000
 SF-CAS              59:       -13.0401990289    12.6013    56.0000
 SF-CAS              60:       -13.0374940644    12.6749    56.0000
 SF-CAS              61:       -13.0348764626    12.7462    56.0000
 SF-CAS              62:       -13.0344545928    12.7576    56.0000
 SF-CAS              63:       -13.0325111753    12.8105    56.0000
 SF-CAS              64:       -13.0314429502    12.8396    56.0000
 SF-CAS              65:       -13.0305702167    12.8633    56.0000
 SF-CAS              66:       -13.0297002749    12.8870    56.0000
 SF-CAS              67:       -13.0266044899    12.9713    56.0000
 SF-CAS              68:       -13.0237428362    13.0491    56.0000
 SF-CAS              69:       -13.0214089338    13.1126    56.0000
 SF-CAS              70:       -13.0163815820    13.2494    56.0000
 SF-CAS              71:       -13.0163727125    13.2497    56.0000
 SF-CAS              72:       -13.0147996878    13.2925    56.0000
 SF-CAS              73:       -13.0141604188    13.3099    56.0000
 SF-CAS              74:       -13.0116713591    13.3776    56.0000
 SF-CAS              75:       -13.0092575086    13.4433    56.0000
 SF-CAS              76:       -13.0077250357    13.4850    56.0000
 SF-CAS              77:       -13.0026838423    13.6222    56.0000
 SF-CAS              78:       -13.0007773392    13.6741    56.0000
 SF-CAS              79:       -13.0004595173    13.6827    56.0000
 SF-CAS              80:       -12.9984895419    13.7363    56.0000
 SF-CAS              81:       -12.9964049975    13.7930    56.0000
 SF-CAS              82:       -12.9940952143    13.8559    56.0000
 SF-CAS              83:       -12.9927514629    13.8925    56.0000
 SF-CAS              84:       -12.9919247017    13.9150    56.0000
 SF-CAS              85:       -12.9847755957    14.1095    56.0000
 SF-CAS              86:       -12.9838774165    14.1339    56.0000
 SF-CAS              87:       -12.9824488416    14.1728    56.0000
 SF-CAS              88:       -12.9809036624    14.2149    56.0000
 SF-CAS              89:       -12.9802123144    14.2337    56.0000
 SF-CAS              90:       -12.9777718696    14.3001    56.0000
 SF-CAS              91:       -12.9771450669    14.3171    56.0000
 SF-CAS              92:       -12.9764548122    14.3359    56.0000
 SF-CAS              93:       -12.9727093777    14.4378    56.0000
 SF-CAS              94:       -12.9719665450    14.4580    56.0000
 SF-CAS              95:       -12.9668723752    14.5967    56.0000
 SF-CAS              96:       -12.9667508036    14.6000    56.0000
 SF-CAS              97:       -12.9629644684    14.7030    56.0000
 SF-CAS              98:       -12.9612883690    14.7486    56.0000
 SF-CAS              99:       -12.9596722619    14.7926    56.0000
 SF-CAS             100:       -12.9570988347    14.8626    56.0000
 SF-CAS             101:       -12.9554392929    14.9078    56.0000
 SF-CAS             102:       -12.9543617143    14.9371    56.0000
 SF-CAS             103:       -12.9526266628    14.9843    56.0000
 SF-CAS             104:       -12.9502569560    15.0488    56.0000
 SF-CAS             105:       -12.9473501391    15.1279    56.0000
 SF-CAS             106:       -12.9460407480    15.1635    56.0000
 SF-CAS             107:       -12.9429971422    15.2464    56.0000
 SF-CAS             108:       -12.9422446857    15.2668    56.0000
 SF-CAS             109:       -12.9411121264    15.2976    56.0000
 SF-CAS             110:       -12.9366196152    15.4199    56.0000
 SF-CAS             111:       -12.9357227669    15.4443    56.0000
 SF-CAS             112:       -12.9335553652    15.5033    56.0000
 SF-CAS             113:       -12.9333172744    15.5098    56.0000
 SF-CAS             114:       -12.9319750489    15.5463    56.0000
 SF-CAS             115:       -12.9291373405    15.6235    56.0000
 SF-CAS             116:       -12.9285733317    15.6389    56.0000
 SF-CAS             117:       -12.9257872058    15.7147    56.0000
 SF-CAS             118:       -12.9228142285    15.7956    56.0000
 SF-CAS             119:       -12.9218972778    15.8205    56.0000
 SF-CAS             120:       -12.9174870002    15.9405    56.0000
 SF-CAS             121:       -12.9132816331    16.0550    56.0000
 SF-CAS             122:       -12.9130358220    16.0617    56.0000
 SF-CAS             123:       -12.9095149695    16.1575    56.0000
 SF-CAS             124:       -12.9074259790    16.2143    56.0000
 SF-CAS             125:       -12.9070864065    16.2235    56.0000
 SF-CAS             126:       -12.9055276695    16.2660    56.0000
 SF-CAS             127:       -12.9052491018    16.2735    56.0000
 SF-CAS             128:       -12.9002013002    16.4109    56.0000
 SF-CAS             129:       -12.9001408692    16.4125    56.0000
 SF-CAS             130:       -12.8994885224    16.4303    56.0000
 SF-CAS             131:       -12.8975936516    16.4819    56.0000
 SF-CAS             132:       -12.8971858683    16.4930    56.0000
 SF-CAS             133:       -12.8962303867    16.5190    56.0000
 SF-CAS             134:       -12.8931552965    16.6026    56.0000
 SF-CAS             135:       -12.8910197509    16.6607    56.0000
 SF-CAS             136:       -12.8907719949    16.6675    56.0000
 SF-CAS             137:       -12.8879271509    16.7449    56.0000
 SF-CAS             138:       -12.8867025902    16.7782    56.0000
 SF-CAS             139:       -12.8859648626    16.7983    56.0000
 SF-CAS             140:       -12.8830690780    16.8771    56.0000
 SF-CAS             141:       -12.8826512371    16.8885    56.0000
 SF-CAS             142:       -12.8802213219    16.9546    56.0000
 SF-CAS             143:       -12.8799933499    16.9608    56.0000
 SF-CAS             144:       -12.8789653208    16.9888    56.0000
 SF-CAS             145:       -12.8748038920    17.1020    56.0000
 SF-CAS             146:       -12.8724399035    17.1663    56.0000
 SF-CAS             147:       -12.8705338587    17.2182    56.0000
 SF-CAS             148:       -12.8704450983    17.2206    56.0000
 SF-CAS             149:       -12.8663378112    17.3324    56.0000
 SF-CAS             150:       -12.8645063122    17.3822    56.0000
 SF-CAS             151:       -12.8639568773    17.3972    56.0000
 SF-CAS             152:       -12.8626690738    17.4322    56.0000
 SF-CAS             153:       -12.8614402131    17.4657    56.0000
 SF-CAS             154:       -12.8575621577    17.5712    56.0000
 SF-CAS             155:       -12.8552020582    17.6354    56.0000
 SF-CAS             156:       -12.8542939894    17.6601    56.0000
 SF-CAS             157:       -12.8517393447    17.7296    56.0000
 SF-CAS             158:       -12.8493176724    17.7955    56.0000
 SF-CAS             159:       -12.8473466882    17.8492    56.0000
 SF-CAS             160:       -12.8471930752    17.8533    56.0000
 SF-CAS             161:       -12.8460414949    17.8847    56.0000
 SF-CAS             162:       -12.8445190806    17.9261    56.0000
 SF-CAS             163:       -12.8410182517    18.0214    56.0000
 SF-CAS             164:       -12.8409951299    18.0220    56.0000
 SF-CAS             165:       -12.8393289800    18.0673    56.0000
 SF-CAS             166:       -12.8374031413    18.1197    56.0000
 SF-CAS             167:       -12.8354772441    18.1721    56.0000
 SF-CAS             168:       -12.8343364760    18.2032    56.0000
 SF-CAS             169:       -12.8328089623    18.2448    56.0000
 SF-CAS             170:       -12.8322005296    18.2613    56.0000
 SF-CAS             171:       -12.8293662559    18.3384    56.0000
 SF-CAS             172:       -12.8243789858    18.4742    56.0000
 SF-CAS             173:       -12.8235604720    18.4964    56.0000
 SF-CAS             174:       -12.8219683461    18.5397    56.0000
 SF-CAS             175:       -12.8209210398    18.5682    56.0000
 SF-CAS             176:       -12.8202651134    18.5861    56.0000
 SF-CAS             177:       -12.8176694395    18.6567    56.0000
 SF-CAS             178:       -12.8148299118    18.7340    56.0000
 SF-CAS             179:       -12.8122830460    18.8033    56.0000
 SF-CAS             180:       -12.8110670017    18.8364    56.0000
 SF-CAS             181:       -12.8087770411    18.8987    56.0000
 SF-CAS             182:       -12.8087314079    18.8999    56.0000
 SF-CAS             183:       -12.8072577747    18.9400    56.0000
 SF-CAS             184:       -12.8071738216    18.9423    56.0000
 SF-CAS             185:       -12.8029162861    19.0582    56.0000
 SF-CAS             186:       -12.8003484164    19.1281    56.0000
 SF-CAS             187:       -12.7986132124    19.1753    56.0000
 SF-CAS             188:       -12.7939895220    19.3011    56.0000
 SF-CAS             189:       -12.7935749681    19.3124    56.0000
 SF-CAS             190:       -12.7887846797    19.4427    56.0000
 SF-CAS             191:       -12.7871947879    19.4860    56.0000
 SF-CAS             192:       -12.7864242401    19.5070    56.0000
 SF-CAS             193:       -12.7842846331    19.5652    56.0000
 SF-CAS             194:       -12.7821185618    19.6241    56.0000
 SF-CAS             195:       -12.7783244885    19.7274    56.0000
 SF-CAS             196:       -12.7775466042    19.7485    56.0000
 SF-CAS             197:       -12.7752042998    19.8123    56.0000
 SF-CAS             198:       -12.7675213192    20.0213    56.0000
 SF-CAS             199:       -12.7674161988    20.0242    56.0000
 SF-CAS             200:       -12.7660140057    20.0624    56.0000
 SF-CAS             201:       -12.7633314040    20.1354    56.0000
 SF-CAS             202:       -12.7607156660    20.2065    56.0000
 SF-CAS             203:       -12.7575644611    20.2923    56.0000
 SF-CAS             204:       -12.7549212672    20.3642    56.0000
 SF-CAS             205:       -12.7548217909    20.3669    56.0000
 SF-CAS             206:       -12.7543748129    20.3791    56.0000
 SF-CAS             207:       -12.7504767637    20.4852    56.0000
 SF-CAS             208:       -12.7497958757    20.5037    56.0000
 SF-CAS             209:       -12.7474538821    20.5674    56.0000
 SF-CAS             210:       -12.7473605732    20.5699    56.0000
 SF-CAS             211:       -12.7472021762    20.5743    56.0000
 SF-CAS             212:       -12.7469415527    20.5814    56.0000
 SF-CAS             213:       -12.7436108722    20.6720    56.0000
 SF-CAS             214:       -12.7412931728    20.7351    56.0000
 SF-CAS             215:       -12.7372520677    20.8450    56.0000
 SF-CAS             216:       -12.7355084017    20.8925    56.0000
 SF-CAS             217:       -12.7328931504    20.9636    56.0000
 SF-CAS             218:       -12.7243131320    21.1971    56.0000
 SF-CAS             219:       -12.7198846282    21.3176    56.0000
 SF-CAS             220:       -12.7192410883    21.3351    56.0000
 SF-CAS             221:       -12.7188683045    21.3453    56.0000
 SF-CAS             222:       -12.7174153119    21.3848    56.0000
 SF-CAS             223:       -12.7128905650    21.5079    56.0000
 SF-CAS             224:       -12.7122216750    21.5261    56.0000
 SF-CAS             225:       -12.7089687423    21.6147    56.0000
 SF-CAS             226:       -12.7068516077    21.6723    56.0000
 SF-CAS             227:       -12.7057685586    21.7017    56.0000
 SF-CAS             228:       -12.6994647830    21.8733    56.0000
 SF-CAS             229:       -12.6962021899    21.9621    56.0000
 SF-CAS             230:       -12.6896775587    22.1396    56.0000
 SF-CAS             231:       -12.6816559290    22.3579    56.0000
 SF-CAS             232:       -12.6793980021    22.4193    56.0000
 SF-CAS             233:       -12.6785998294    22.4410    56.0000
 SF-CAS             234:       -12.6682199031    22.7235    56.0000
 SF-CAS             235:       -12.6675757792    22.7410    56.0000
 SF-CAS             236:       -12.6637656736    22.8447    56.0000
 SF-CAS             237:       -12.6628926771    22.8685    56.0000
 SF-CAS             238:       -12.6606349202    22.9299    56.0000
 SF-CAS             239:       -12.6582972026    22.9935    56.0000
 SF-CAS             240:       -12.6555489406    23.0683    56.0000
 SF-CAS             241:       -12.6469696784    23.3018    56.0000
 SF-CAS             242:       -12.6379404198    23.5475    56.0000
 SF-CAS             243:       -12.6326308836    23.6919    56.0000
 SF-CAS             244:       -12.6312901680    23.7284    56.0000
 SF-CAS             245:       -12.6241127575    23.9237    56.0000
 SF-CAS             246:       -12.6190152512    24.0624    56.0000
 SF-CAS             247:       -12.6138834639    24.2021    56.0000
 SF-CAS             248:       -12.6110886272    24.2781    56.0000
 SF-CAS             249:       -12.5974651310    24.6489    56.0000
 SF-CAS             250:       -12.5878113969    24.9115    56.0000
 SF-CAS             251:       -12.5834250305    25.0309    56.0000
 SF-CAS             252:       -12.5804301296    25.1124    56.0000
 SF-CAS             253:       -12.5726715677    25.3235    56.0000
 SF-CAS             254:       -12.5420553319    26.1566    56.0000
 SF-CAS             255:       -12.5300834191    26.4824    56.0000
 SF-CAS             256:       -12.5142599131    26.9130    56.0000
 ===================================================================

              Active Space Coefficients > 0.20
 -------------------------------------------------------------------
 State  1                       Configuration         Coeff.   <S^2>
 -------------------------------------------------------------------
          111111111111111_ | _______________1       0.340399  57.000
          1111111111111_11 | _____________1__       0.340410  57.000
          111111111111_111 | ____________1___       0.365922  57.000
          111111111_111111 | _________1______      -0.365907  57.000
 -------------------------------------------------------------------
 State  2                       Configuration         Coeff.   <S^2>
 -------------------------------------------------------------------
          111111111111111_ | _______________1       0.219931  57.000
          11111111111111_1 | ______________1_      -0.301538  57.000
          1111111111111_11 | _____________1__      -0.219916  57.000
          111111111111_111 | ____________1___      -0.282117  57.000
          111111111_111111 | _________1______      -0.282133  57.000
          11111111_1111111 | ________1_______      -0.332097  57.000
          111111_111111111 | ______1_________       0.301539  57.000
          11111_1111111111 | _____1__________      -0.332095  57.000
 -------------------------------------------------------------------
 State  3                       Configuration         Coeff.   <S^2>
 -------------------------------------------------------------------
          11111111111_1111 | ___________1____      -0.346110  57.000
          1111111111_11111 | __________1_____      -0.346109  57.000
          1111111_11111111 | _______1________      -0.367036  57.000
          1111_11111111111 | ____1___________      -0.367032  57.000
          111_111111111111 | ___1____________      -0.203370  57.000
          11_1111111111111 | __1_____________      -0.250476  57.000
          1_11111111111111 | _1______________      -0.250468  57.000
          _111111111111111 | 1_______________      -0.203370  57.000
 -------------------------------------------------------------------
 State  4                       Configuration         Coeff.   <S^2>
 -------------------------------------------------------------------
          111111111111111_ | _______________1       0.249292  57.000
          11111111111111_1 | ______________1_      -0.230745  57.000
          1111111111111_11 | _____________1__       0.249313  57.000
          111111111111_111 | ____________1___       0.263238  57.000
          111111111_111111 | _________1______      -0.263222  57.000
          11111111_1111111 | ________1_______       0.212836  57.000
          1111111_11111111 | _______1________       0.233520  57.000
          111111_111111111 | ______1_________      -0.230735  57.000
          11111_1111111111 | _____1__________      -0.212849  57.000
          1111_11111111111 | ____1___________      -0.233528  57.000
          11_1111111111111 | __1_____________       0.236856  57.000
          1_11111111111111 | _1______________      -0.236857  57.000
 -------------------------------------------------------------------
 State  5                       Configuration         Coeff.   <S^2>
 -------------------------------------------------------------------
          11111111111111_1 | ______________1_       0.341948  57.000
          11111111111_1111 | ___________1____      -0.302648  57.000
          1111111111_11111 | __________1_____       0.302639  57.000
          11111111_1111111 | ________1_______      -0.338325  57.000
          1111111_11111111 | _______1________       0.272099  57.000
          111111_111111111 | ______1_________       0.341940  57.000
          11111_1111111111 | _____1__________       0.338333  57.000
          1111_11111111111 | ____1___________      -0.272086  57.000
 -------------------------------------------------------------------
 State  6                       Configuration         Coeff.   <S^2>
 -------------------------------------------------------------------
          11111111111_1111 | ___________1____      -0.297775  57.000
          1111111111_11111 | __________1_____       0.297781  57.000
          1111111_11111111 | _______1________      -0.298934  57.000
          1111_11111111111 | ____1___________       0.298933  57.000
          111_111111111111 | ___1____________       0.315102  57.000
          11_1111111111111 | __1_____________      -0.309394  57.000
          1_11111111111111 | _1______________       0.309390  57.000
          _111111111111111 | 1_______________      -0.315097  57.000
 -------------------------------------------------------------------
 State  7                       Configuration         Coeff.   <S^2>
 -------------------------------------------------------------------
          111111111111111_ | _______________1       0.303350  57.000
          11111111111111_1 | ______________1_       0.309482  57.000
          1111111111111_11 | _____________1__      -0.303333  57.000
          111111111111_111 | ____________1___      -0.333913  57.000
          111111111_111111 | _________1______      -0.333927  57.000
          11111111_1111111 | ________1_______       0.304941  57.000
          111111_111111111 | ______1_________      -0.309506  57.000
          11111_1111111111 | _____1__________       0.304918  57.000
 -------------------------------------------------------------------
 State  8                       Configuration         Coeff.   <S^2>
 -------------------------------------------------------------------
          111111111111_111 | ____________1___      -0.202867  57.000
          11111111111_1111 | ___________1____       0.286619  57.000
          1111111111_11111 | __________1_____       0.286623  57.000
          111111111_111111 | _________1______      -0.202876  57.000
          1111111_11111111 | _______1________      -0.265180  57.000
          1111_11111111111 | ____1___________      -0.265191  57.000
          111_111111111111 | ___1____________       0.310877  57.000
          11_1111111111111 | __1_____________      -0.308002  57.000
          1_11111111111111 | _1______________      -0.308011  57.000
          _111111111111111 | 1_______________       0.310876  57.000
 -------------------------------------------------------------------
 State  9                       Configuration         Coeff.   <S^2>
 -------------------------------------------------------------------
          111111111111111_ | _______________1       0.455578  57.000
          1111111111111_11 | _____________1__      -0.455577  57.000
          111111111111_111 | ____________1___       0.391943  57.000
          111111111_111111 | _________1______       0.391945  57.000
 -------------------------------------------------------------------
 State  10                      Configuration         Coeff.   <S^2>
 -------------------------------------------------------------------
          11111111111111_1 | ______________1_       0.306297  57.000
          11111111111_1111 | ___________1____       0.219126  57.000
          1111111111_11111 | __________1_____       0.219127  57.000
          11111111_1111111 | ________1_______      -0.301444  57.000
          1111111_11111111 | _______1________       0.228921  57.000
          111111_111111111 | ______1_________      -0.306299  57.000
          11111_1111111111 | _____1__________      -0.301440  57.000
          1111_11111111111 | ____1___________       0.228924  57.000
          111_111111111111 | ___1____________      -0.294736  57.000
          11_1111111111111 | __1_____________      -0.281414  57.000
          1_11111111111111 | _1______________      -0.281418  57.000
          _111111111111111 | 1_______________      -0.294737  57.000
 -------------------------------------------------------------------
 State  11                      Configuration         Coeff.   <S^2>
 -------------------------------------------------------------------
          111111111111111_ | _______________1      -0.291697  57.000
          11111111111111_1 | ______________1_      -0.354626  57.000
          1111111111111_11 | _____________1__      -0.291698  57.000
          111111111111_111 | ____________1___       0.271737  57.000
          111111111_111111 | _________1______      -0.271736  57.000
          11111111_1111111 | ________1_______      -0.350221  57.000
          111111_111111111 | ______1_________      -0.354624  57.000
          11111_1111111111 | _____1__________       0.350224  57.000
 -------------------------------------------------------------------
 State  12                      Configuration         Coeff.   <S^2>
 -------------------------------------------------------------------
          111111111111111_ | _______________1       0.298708  57.000
          1111111111111_11 | _____________1__       0.298711  57.000
          111111111111_111 | ____________1___      -0.277870  57.000
          11111111111_1111 | ___________1____      -0.251588  57.000
          1111111111_11111 | __________1_____       0.251585  57.000
          111111111_111111 | _________1______       0.277870  57.000
          1111111_11111111 | _______1________      -0.212108  57.000
          1111_11111111111 | ____1___________       0.212109  57.000
          111_111111111111 | ___1____________      -0.288329  57.000
          11_1111111111111 | __1_____________       0.203614  57.000
          1_11111111111111 | _1______________      -0.203615  57.000
          _111111111111111 | 1_______________       0.288334  57.000
 -------------------------------------------------------------------
 State  13                      Configuration         Coeff.   <S^2>
 -------------------------------------------------------------------
          11111111111_1111 | ___________1____      -0.229660  57.000
          1111111111_11111 | __________1_____       0.229661  57.000
          1111111_11111111 | _______1________       0.272416  57.000
          1111_11111111111 | ____1___________      -0.272412  57.000
          111_111111111111 | ___1____________      -0.376935  57.000
          11_1111111111111 | __1_____________      -0.423743  57.000
          1_11111111111111 | _1______________       0.423742  57.000
          _111111111111111 | 1_______________       0.376933  57.000
 -------------------------------------------------------------------
 State  14                      Configuration         Coeff.   <S^2>
 -------------------------------------------------------------------
          11111111111_1111 | ___________1____      -0.347663  57.000
          1111111111_11111 | __________1_____      -0.347664  57.000
          1111111_11111111 | _______1________       0.345993  57.000
          1111_11111111111 | ____1___________       0.345991  57.000
          111_111111111111 | ___1____________       0.343032  57.000
          11_1111111111111 | __1_____________      -0.332702  57.000
          1_11111111111111 | _1______________      -0.332701  57.000
          _111111111111111 | 1_______________       0.343030  57.000
 -------------------------------------------------------------------
 State  15                      Configuration         Coeff.   <S^2>
 -------------------------------------------------------------------
          11111111111111_1 | ______________1_       0.349830  57.000
          11111111_1111111 | ________1_______      -0.344154  57.000
          111111_111111111 | ______1_________      -0.349830  57.000
          11111_1111111111 | _____1__________      -0.344154  57.000
          111_111111111111 | ___1____________       0.267298  57.000
          11_1111111111111 | __1_____________       0.280996  57.000
          1_11111111111111 | _1______________       0.280997  57.000
          _111111111111111 | 1_______________       0.267298  57.000
 -------------------------------------------------------------------
 State  16                      Configuration         Coeff.   <S^2>
 -------------------------------------------------------------------
          111111111111111_ | _______________1       0.250000  57.000
          11111111111111_1 | ______________1_      -0.250000  57.000
          1111111111111_11 | _____________1__       0.250000  57.000
          111111111111_111 | ____________1___      -0.250000  57.000
          11111111111_1111 | ___________1____       0.250000  57.000
          1111111111_11111 | __________1_____      -0.250000  57.000
          111111111_111111 | _________1______       0.250000  57.000
          11111111_1111111 | ________1_______      -0.250000  57.000
          1111111_11111111 | _______1________       0.250000  57.000
          111111_111111111 | ______1_________      -0.250000  57.000
          11111_1111111111 | _____1__________       0.250000  57.000
          1111_11111111111 | ____1___________      -0.250000  57.000
          111_111111111111 | ___1____________       0.250000  57.000
          11_1111111111111 | __1_____________      -0.250000  57.000
          1_11111111111111 | _1______________       0.250000  57.000
          _111111111111111 | 1_______________      -0.250000  57.000
 -------------------------------------------------------------------
 State  17                      Configuration         Coeff.   <S^2>
 -------------------------------------------------------------------
          111111111111111_ | ____________1___       0.201241  56.000
          1111111111111_11 | _________1______      -0.201248  56.000
 -------------------------------------------------------------------
 State  18                      Configuration         Coeff.   <S^2>
 -------------------------------------------------------------------
 -------------------------------------------------------------------
 State  19                      Configuration         Coeff.   <S^2>
 -------------------------------------------------------------------
 -------------------------------------------------------------------
 State  20                      Configuration         Coeff.   <S^2>
 -------------------------------------------------------------------
 -------------------------------------------------------------------
 State  21                      Configuration         Coeff.   <S^2>
 -------------------------------------------------------------------
          11111111111111_1 | ____________1___       0.206543  56.000
          111111_111111111 | _________1______      -0.206535  56.000
 -------------------------------------------------------------------
 State  22                      Configuration         Coeff.   <S^2>
 -------------------------------------------------------------------
 -------------------------------------------------------------------
 State  23                      Configuration         Coeff.   <S^2>
 -------------------------------------------------------------------
 -------------------------------------------------------------------
 State  24                      Configuration         Coeff.   <S^2>
 -------------------------------------------------------------------
 -------------------------------------------------------------------
 State  25                      Configuration         Coeff.   <S^2>
 -------------------------------------------------------------------
          11111111111_1111 | ____1___________       0.207883  56.000
          1111111111_11111 | _______1________       0.207883  56.000
 -------------------------------------------------------------------
 State  26                      Configuration         Coeff.   <S^2>
 -------------------------------------------------------------------
          111111111111_111 | _______________1      -0.208526  56.000
          111111111_111111 | _____________1__       0.208527  56.000
 -------------------------------------------------------------------
 State  27                      Configuration         Coeff.   <S^2>
 -------------------------------------------------------------------
 -------------------------------------------------------------------
 State  28                      Configuration         Coeff.   <S^2>
 -------------------------------------------------------------------
 -------------------------------------------------------------------
 State  29                      Configuration         Coeff.   <S^2>
 -------------------------------------------------------------------
 -------------------------------------------------------------------
 State  30                      Configuration         Coeff.   <S^2>
 -------------------------------------------------------------------
 -------------------------------------------------------------------
 State  31                      Configuration         Coeff.   <S^2>
 -------------------------------------------------------------------
 -------------------------------------------------------------------
 State  32                      Configuration         Coeff.   <S^2>
 -------------------------------------------------------------------
          11111111111_1111 | 1_______________       0.215869  56.000
          11111111111_1111 | ____1___________      -0.230565  56.000
          1111111111_11111 | ___1____________      -0.215867  56.000
          1111111111_11111 | _______1________       0.230565  56.000
          1111111_11111111 | __________1_____      -0.204076  56.000
          1111_11111111111 | ___________1____       0.204075  56.000
 -------------------------------------------------------------------
 State  33                      Configuration         Coeff.   <S^2>
 -------------------------------------------------------------------
 -------------------------------------------------------------------
 State  34                      Configuration         Coeff.   <S^2>
 -------------------------------------------------------------------
          111111111111111_ | _________1______      -0.252054  56.000
          1111111111111_11 | ____________1___       0.252017  56.000
          111111111111_111 | _____________1__      -0.235207  56.000
          111111111_111111 | _______________1      -0.235142  56.000
 -------------------------------------------------------------------
 State  35                      Configuration         Coeff.   <S^2>
 -------------------------------------------------------------------
 -------------------------------------------------------------------
 State  36                      Configuration         Coeff.   <S^2>
 -------------------------------------------------------------------
 -------------------------------------------------------------------
 State  37                      Configuration         Coeff.   <S^2>
 -------------------------------------------------------------------
          11111111111111_1 | __1_____________      -0.201691  56.000
          111111_111111111 | _1______________       0.201693  56.000
 -------------------------------------------------------------------
 State  38                      Configuration         Coeff.   <S^2>
 -------------------------------------------------------------------
 -------------------------------------------------------------------
 State  39                      Configuration         Coeff.   <S^2>
 -------------------------------------------------------------------
 -------------------------------------------------------------------
 State  40                      Configuration         Coeff.   <S^2>
 -------------------------------------------------------------------
          11111111111_1111 | 1_______________      -0.211018  56.000
          1111111111_11111 | ___1____________      -0.211018  56.000
          1111111_11111111 | __1_____________      -0.201194  56.000
          1111_11111111111 | _1______________      -0.201192  56.000
 -------------------------------------------------------------------
 State  41                      Configuration         Coeff.   <S^2>
 -------------------------------------------------------------------
 -------------------------------------------------------------------
 State  42                      Configuration         Coeff.   <S^2>
 -------------------------------------------------------------------
 -------------------------------------------------------------------
 State  43                      Configuration         Coeff.   <S^2>
 -------------------------------------------------------------------
 -------------------------------------------------------------------
 State  44                      Configuration         Coeff.   <S^2>
 -------------------------------------------------------------------
 -------------------------------------------------------------------
 State  45                      Configuration         Coeff.   <S^2>
 -------------------------------------------------------------------
 -------------------------------------------------------------------
 State  46                      Configuration         Coeff.   <S^2>
 -------------------------------------------------------------------
          11111111111_1111 | 1_______________      -0.229524  56.000
          1111111111_11111 | ___1____________      -0.229521  56.000
          11111111_1111111 | ___1____________      -0.239148  56.000
          11111_1111111111 | 1_______________      -0.239157  56.000
          111_111111111111 | __________1_____       0.218742  56.000
          _111111111111111 | ___________1____       0.218738  56.000
 -------------------------------------------------------------------
 State  47                      Configuration         Coeff.   <S^2>
 -------------------------------------------------------------------
 -------------------------------------------------------------------
 State  48                      Configuration         Coeff.   <S^2>
 -------------------------------------------------------------------
          1111111_11111111 | __1_____________      -0.263936  56.000
          1111_11111111111 | _1______________      -0.263935  56.000
          11_1111111111111 | _______1________       0.264097  56.000
          1_11111111111111 | ____1___________       0.264092  56.000
 -------------------------------------------------------------------
 State  49                      Configuration         Coeff.   <S^2>
 -------------------------------------------------------------------
          1111111_11111111 | __________1_____       0.229009  56.000
          1111_11111111111 | ___________1____       0.229002  56.000
 -------------------------------------------------------------------
 State  50                      Configuration         Coeff.   <S^2>
 -------------------------------------------------------------------
 -------------------------------------------------------------------
 State  51                      Configuration         Coeff.   <S^2>
 -------------------------------------------------------------------
          11111111111_1111 | ____1___________      -0.247182  56.000
          1111111111_11111 | _______1________      -0.247284  56.000
 -------------------------------------------------------------------
 State  52                      Configuration         Coeff.   <S^2>
 -------------------------------------------------------------------
 -------------------------------------------------------------------
 State  53                      Configuration         Coeff.   <S^2>
 -------------------------------------------------------------------
 -------------------------------------------------------------------
 State  54                      Configuration         Coeff.   <S^2>
 -------------------------------------------------------------------
 -------------------------------------------------------------------
 State  55                      Configuration         Coeff.   <S^2>
 -------------------------------------------------------------------
 -------------------------------------------------------------------
 State  56                      Configuration         Coeff.   <S^2>
 -------------------------------------------------------------------
 -------------------------------------------------------------------
 State  57                      Configuration         Coeff.   <S^2>
 -------------------------------------------------------------------
 -------------------------------------------------------------------
 State  58                      Configuration         Coeff.   <S^2>
 -------------------------------------------------------------------
          111111111111111_ | _________1______       0.208895  56.000
          1111111111111_11 | ____________1___       0.208893  56.000
 -------------------------------------------------------------------
 State  59                      Configuration         Coeff.   <S^2>
 -------------------------------------------------------------------
[...]
 12649    25865.37580808    92967.69204844        6.00000000      cm-1
 12650    25879.77642994    92982.09267030        2.00000000      cm-1
 12651    25890.24014703    92992.55638740        2.00000000      cm-1
 12652    25890.89406380    92993.21030417       20.00000000      cm-1
 12653    25891.07801607    92993.39425644       -0.00000000      cm-1
 12654    25939.54774736    93041.86398772       12.00000000      cm-1
 12655    25949.92778088    93052.24402124        6.00000000      cm-1
 12656    25973.26992805    93075.58616842        6.00000000      cm-1
 12657    25985.97876410    93088.29500447        2.00000000      cm-1
 12658    26018.04373871    93120.35997908       20.00000000      cm-1
 12659    26034.62304656    93136.93928693       12.00000000      cm-1
 12660    26072.76539062    93175.08163099       12.00000000      cm-1
 12661    26075.42849652    93177.74473688        6.00000000      cm-1
 12662    26076.85815416    93179.17439453        2.00000000      cm-1
 12663    26097.17837370    93199.49461407        2.00000000      cm-1
 12664    26115.05519832    93217.37143869       20.00000000      cm-1
 12665    26117.10719665    93219.42343701       20.00000000      cm-1
 12666    26121.17383848    93223.49007885        6.00000000      cm-1
 12667    26146.71815472    93249.03439508       30.00000000      cm-1
 12668    26152.79994180    93255.11618217       56.00000000      cm-1
 12669    26183.55937805    93285.87561841       12.00000000      cm-1
 12670    26242.61531439    93344.93155476       30.00000000      cm-1
 12671    26245.42491995    93347.74116031       20.00000000      cm-1
 12672    26273.67086470    93375.98710506       42.00000000      cm-1
 12673    26280.09380005    93382.41004042       12.00000000      cm-1
 12674    26284.20796247    93386.52420284       12.00000000      cm-1
 12675    26300.84698049    93403.16322086        6.00000000      cm-1
 12676    26325.21465327    93427.53089363       30.00000000      cm-1
 12677    26331.36042648    93433.67666685       30.00000000      cm-1
 12678    26333.52905609    93435.84529646        2.00000000      cm-1
 12679    26348.74581021    93451.06205057       12.00000000      cm-1
 12680    26357.17057859    93459.48681895        2.00000000      cm-1
 12681    26358.78427875    93461.10051912       12.00000000      cm-1
 12682    26362.50107524    93464.81731561        0.00000000      cm-1
 12683    26398.06044210    93500.37668247        6.00000000      cm-1
 12684    26400.66060618    93502.97684654       12.00000000      cm-1
 12685    26403.31123201    93505.62747237       20.00000000      cm-1
 12686    26455.80309747    93558.11933784       20.00000000      cm-1
 12687    26469.05554764    93571.37178801       20.00000000      cm-1
 12688    26482.91459932    93585.23083969        2.00000000      cm-1
 12689    26501.77775704    93604.09399741       12.00000000      cm-1
 12690    26514.96444125    93617.28068162       12.00000000      cm-1
 12691    26569.02389264    93671.34013300       42.00000000      cm-1
 12692    26633.09351676    93735.40975713       12.00000000      cm-1
 12693    26661.54382322    93763.86006358       20.00000000      cm-1
 12694    26669.94341950    93772.25965987       30.00000000      cm-1
 12695    26704.40569298    93806.72193335       12.00000000      cm-1
 12696    26705.53022328    93807.84646364        6.00000000      cm-1
 12697    26732.68145782    93834.99769818        6.00000000      cm-1
 12698    26762.26360966    93864.57985003        6.00000000      cm-1
 12699    26776.95834646    93879.27458683       20.00000000      cm-1
 12700    26777.66426964    93879.98051000        2.00000000      cm-1
 12701    26795.02956830    93897.34580866        6.00000000      cm-1
 12702    26827.21911673    93929.53535710       30.00000000      cm-1
 12703    26827.86670087    93930.18294124        2.00000000      cm-1
 12704    26836.46652299    93938.78276335       12.00000000      cm-1
 12705    26842.83252494    93945.14876531       30.00000000      cm-1
 12706    26879.29693662    93981.61317699       20.00000000      cm-1
 12707    26923.31014930    94025.62638966       56.00000000      cm-1
 12708    26969.21975067    94071.53599103        6.00000000      cm-1
 12709    26984.66565496    94086.98189533       20.00000000      cm-1
 12710    26998.94787944    94101.26411980       30.00000000      cm-1
 12711    27016.65563859    94118.97187896       12.00000000      cm-1
 12712    27029.81913277    94132.13537313       20.00000000      cm-1
 12713    27064.40997243    94166.72621279        6.00000000      cm-1
 12714    27076.22518736    94178.54142772       12.00000000      cm-1
 12715    27086.01983239    94188.33607276       20.00000000      cm-1
 12716    27127.17043196    94229.48667232       20.00000000      cm-1
 12717    27146.52860129    94248.84484166       20.00000000      cm-1
 12718    27154.16459676    94256.48083712       12.00000000      cm-1
 12719    27158.11897958    94260.43521995       12.00000000      cm-1
 12720    27162.95931106    94265.27555142        6.00000000      cm-1
 12721    27196.10722543    94298.42346579       30.00000000      cm-1
 12722    27203.57267782    94305.88891818        2.00000000      cm-1
 12723    27216.15037619    94318.46661655       12.00000000      cm-1
 12724    27233.51970158    94335.83594194       30.00000000      cm-1
 12725    27247.65332698    94349.96956734       42.00000000      cm-1
 12726    27247.65479361    94349.97103397       30.00000000      cm-1
 12727    27265.30506013    94367.62130050       20.00000000      cm-1
 12728    27269.95279494    94372.26903531       30.00000000      cm-1
 12729    27318.51291403    94420.82915440        6.00000000      cm-1
 12730    27355.64684151    94457.96308188       30.00000000      cm-1
 12731    27365.15070386    94467.46694423        6.00000000      cm-1
 12732    27373.51559547    94475.83183584       30.00000000      cm-1
 12733    27404.26270474    94506.57894510       -0.00000000      cm-1
 12734    27405.39647759    94507.71271795       30.00000000      cm-1
 12735    27427.97401746    94530.29025783       20.00000000      cm-1
 12736    27461.69171508    94564.00795545       12.00000000      cm-1
 12737    27498.75983867    94601.07607903        6.00000000      cm-1
 12738    27518.53135972    94620.84760008       30.00000000      cm-1
 12739    27541.38800023    94643.70424059        2.00000000      cm-1
 12740    27544.42840516    94646.74464553       20.00000000      cm-1
 12741    27556.78427156    94659.10051193       20.00000000      cm-1
 12742    27558.96125768    94661.27749804       12.00000000      cm-1
 12743    27573.29561010    94675.61185047       20.00000000      cm-1
 12744    27603.08416563    94705.40040600       12.00000000      cm-1
 12745    27628.49662712    94730.81286749        6.00000000      cm-1
 12746    27641.93274360    94744.24898397       30.00000000      cm-1
 12747    27644.63968983    94746.95593020       12.00000000      cm-1
 12748    27704.60693723    94806.92317760        0.00000000      cm-1
 12749    27826.85508565    94929.17132601       30.00000000      cm-1
 12750    27833.31891068    94935.63515104       20.00000000      cm-1
 12751    27835.54517728    94937.86141765       20.00000000      cm-1
 12752    27853.52827054    94955.84451091        6.00000000      cm-1
 12753    27863.27944969    94965.59569005       12.00000000      cm-1
 12754    27871.65921182    94973.97545219       12.00000000      cm-1
 12755    27903.96424911    95006.28048948        2.00000000      cm-1
 12756    27910.10511442    95012.42135479       30.00000000      cm-1
 12757    27984.60827968    95086.92452004       42.00000000      cm-1
 12758    28001.22759341    95103.54383377        2.00000000      cm-1
 12759    28021.15144813    95123.46768849       20.00000000      cm-1
 12760    28035.66078244    95137.97702281       20.00000000      cm-1
 12761    28104.73342715    95207.04966752       20.00000000      cm-1
 12762    28134.59526208    95236.91150245        6.00000000      cm-1
 12763    28154.40186903    95256.71810940       30.00000000      cm-1
 12764    28233.81391285    95336.13015321        6.00000000      cm-1
 12765    28239.62280476    95341.93904513       12.00000000      cm-1
 12766    28293.64050538    95395.95674575        2.00000000      cm-1
 12767    28306.72634995    95409.04259032       12.00000000      cm-1
 12768    28313.06356178    95415.37980215       30.00000000      cm-1
 12769    28317.95261351    95420.26885388       12.00000000      cm-1
 12770    28358.04844475    95460.36468512       20.00000000      cm-1
 12771    28395.76129399    95498.07753435       42.00000000      cm-1
 12772    28401.75935165    95504.07559202       20.00000000      cm-1
 12773    28420.31464054    95522.63088091       30.00000000      cm-1
 12774    28461.63081688    95563.94705724       20.00000000      cm-1
 12775    28478.37021274    95580.68645311       12.00000000      cm-1
 12776    28490.52901019    95592.84525056        6.00000000      cm-1
 12777    28583.69239020    95686.00863057       20.00000000      cm-1
 12778    28588.24658044    95690.56282081       20.00000000      cm-1
 12779    28632.39599286    95734.71223323       42.00000000      cm-1
 12780    28715.94356994    95818.25981031       30.00000000      cm-1
 12781    28750.33325017    95852.64949054        6.00000000      cm-1
 12782    28765.75045854    95868.06669891       20.00000000      cm-1
 12783    28777.03900350    95879.35524386       12.00000000      cm-1
 12784    28778.24634648    95880.56258685       12.00000000      cm-1
 12785    28804.73726737    95907.05350773       30.00000000      cm-1
 12786    28835.52296002    95937.83920039       20.00000000      cm-1
 12787    28904.77465717    96007.09089753       42.00000000      cm-1
 12788    29093.40797283    96195.72421320        6.00000000      cm-1
 12789    29111.77826195    96214.09450232       12.00000000      cm-1
 12790    29158.92871576    96261.24495613       30.00000000      cm-1
 12791    29178.24240776    96280.55864813       20.00000000      cm-1
 12792    29225.00893248    96327.32517284        6.00000000      cm-1
 12793    29234.21107169    96336.52731205       42.00000000      cm-1
 12794    29264.49495268    96366.81119304       30.00000000      cm-1
 12795    29270.41827651    96372.73451687       12.00000000      cm-1
 12796    29294.15875680    96396.47499717       20.00000000      cm-1
 12797    29325.09649916    96427.41273953       30.00000000      cm-1
 12798    29377.33279988    96479.64904025        6.00000000      cm-1
 12799    29384.48442333    96486.80066370       20.00000000      cm-1
 12800    29470.30526328    96572.62150364       30.00000000      cm-1
 12801    29523.21432405    96625.53056441       30.00000000      cm-1
 12802    29555.91946231    96658.23570268       12.00000000      cm-1
 12803    29631.25172822    96733.56796858       30.00000000      cm-1
 12804    29631.29362266    96733.60986302       12.00000000      cm-1
 12805    29679.26730928    96781.58354965       42.00000000      cm-1
 12806    29690.92468667    96793.24092703       30.00000000      cm-1
 12807    29712.94372634    96815.25996671       20.00000000      cm-1
 12808    29717.20559427    96819.52183464       20.00000000      cm-1
 12809    29775.88396005    96878.20020041       42.00000000      cm-1
 12810    29809.90589699    96912.22213736       42.00000000      cm-1
 12811    29822.57283566    96924.88907602       30.00000000      cm-1
 12812    29825.19275638    96927.50899675        2.00000000      cm-1
 12813    29914.56615466    97016.88239503        2.00000000      cm-1
 12814    30039.60474103    97141.92098139       30.00000000      cm-1
 12815    30138.82277160    97241.13901196       20.00000000      cm-1
 12816    30182.14964855    97284.46588892       12.00000000      cm-1
 12817    30187.34977285    97289.66601322       -0.00000000      cm-1
 12818    30204.63526779    97306.95150816       42.00000000      cm-1
 12819    30250.89225323    97353.20849359       12.00000000      cm-1
 12820    30263.02273377    97365.33897413       56.00000000      cm-1
 12821    30273.71854239    97376.03478275       20.00000000      cm-1
 12822    30294.90315898    97397.21939934       12.00000000      cm-1
 12823    30392.25247424    97494.56871461       42.00000000      cm-1
 12824    30424.16740307    97526.48364344        6.00000000      cm-1
 12825    30489.42854302    97591.74478339       30.00000000      cm-1
 12826    30502.07138374    97604.38762410        2.00000000      cm-1
 12827    30574.65278539    97676.96902576       30.00000000      cm-1
 12828    30616.41304050    97718.72928086        6.00000000      cm-1
 12829    30651.64276015    97753.95900052       20.00000000      cm-1
 12830    30911.66719803    98013.98343839       20.00000000      cm-1
 12831    30942.65765999    98044.97390035       42.00000000      cm-1
 12832    31059.07164830    98161.38788867       30.00000000      cm-1
 12833    31102.08254672    98204.39878708        6.00000000      cm-1
 12834    31151.16806563    98253.48430600       12.00000000      cm-1
 12835    31164.06382055    98266.38006091       42.00000000      cm-1
 12836    31176.98368767    98279.29992804       30.00000000      cm-1
 12837    31224.93730766    98327.25354803       20.00000000      cm-1
 12838    31229.48880392    98331.80504429       30.00000000      cm-1
 12839    31388.84371975    98491.15996011       42.00000000      cm-1
 12840    31444.81311615    98547.12935651       30.00000000      cm-1
 12841    31511.06213160    98613.37837196       20.00000000      cm-1
 12842    31514.26314730    98616.57938766       42.00000000      cm-1
 12843    31542.93920823    98645.25544859       20.00000000      cm-1
 12844    31590.61293411    98692.92917447       12.00000000      cm-1
 12845    31627.40850388    98729.72474425       42.00000000      cm-1
 12846    31757.63099599    98859.94723636       20.00000000      cm-1
 12847    31886.59926877    98988.91550913       12.00000000      cm-1
 12848    32182.85768570    99285.17392606       56.00000000      cm-1
 12849    32335.10584742    99437.42208779       42.00000000      cm-1
 12850    32443.35114657    99545.66738694       30.00000000      cm-1
 12851    32489.92375960    99592.23999997       30.00000000      cm-1
 12852    32588.85560659    99691.17184695       42.00000000      cm-1
 12853    32668.53363374    99770.84987410       20.00000000      cm-1
 12854    32691.14805222    99793.46429259       30.00000000      cm-1
 12855    32867.86339075    99970.17963112       20.00000000      cm-1
 12856    32877.90064099    99980.21688136       42.00000000      cm-1
 12857    32997.51739747   100099.83363783       30.00000000      cm-1
 12858    33055.98701781   100158.30325818       56.00000000      cm-1
 12859    33633.18893247   100735.50517284       42.00000000      cm-1
 12860    33855.86911553   100958.18535589       30.00000000      cm-1
 12861    34083.39600018   101185.71224055       30.00000000      cm-1
 12862    34179.43233757   101281.74857794       56.00000000      cm-1
 12863    34567.86958551   101670.18582588       56.00000000      cm-1
 12864    34746.06979867   101848.38603903       42.00000000      cm-1
 12865    35198.32921134   102300.64545171       42.00000000      cm-1
 12866    35475.31876197   102577.63500233       42.00000000      cm-1
 12867    36814.66154921   103916.97778958       56.00000000      cm-1
 12868    36988.82889035   104091.14513072       56.00000000      cm-1
 12869    38682.96155077   105785.27779114       72.00000000      cm-1
 Analysis of SCF Wavefunction

 --------------------------------------------------------------

                    Orbital Energies (a.u.)
 --------------------------------------------------------------

 Alpha MOs
 -- Occupied --
 -0.914  -0.914  -0.508  -0.505  -0.505  -0.498  -0.498  -0.510
 -0.502  -0.508  -0.497  -0.516  -0.502  -0.497  -0.510  -0.504
 -0.504  -0.516
 -- Virtual --
  1.047   1.068   1.022   1.068   1.373   0.917   1.091   1.164
  1.005   1.052   1.008   1.076   1.038   1.007   1.008   1.042
  1.026   1.046

 Beta MOs
 -- Occupied --
 -0.914  -0.914
 -- Virtual --
  0.162   0.164   0.164   0.160   0.160   0.165   0.168   0.162
  0.161   0.163   0.168   0.161   0.165   0.165   0.165   0.163
  1.212   1.231   1.190   1.216   1.385   1.100   1.231   1.264
  1.173   1.214   1.180   1.235   1.197   1.180   1.187   1.208
  1.193   1.207
 --------------------------------------------------------------

          Ground-State Mulliken Net Atomic Charges

     Atom                 Charge (a.u.)
  ----------------------------------------
      1 H                    -0.000091
      2 H                     0.000190
      3 H                     0.000290
      4 H                    -0.000160
      5 H                     0.000097
      6 H                    -0.000261
      7 H                    -0.000179
      8 H                     0.000114
      9 H                     0.000097
     10 H                    -0.000261
     11 H                    -0.000179
     12 H                     0.000114
     13 H                    -0.000091
     14 H                     0.000190
     15 H                     0.000290
     16 H                    -0.000160
     17 He                   -0.000000
     18 He                    0.000000
  ----------------------------------------
  Sum of atomic charges =     0.000000

 -----------------------------------------------------------------
                    Cartesian Multipole Moments
 -----------------------------------------------------------------
    Charge (ESU x 10^10)
                 0.0000
    Dipole Moment (Debye)
         X       0.0000      Y       0.0000      Z       0.0000
       Tot       0.0000
    Quadrupole Moments (Debye-Ang)
        XX     -27.1206     XY      -0.1081     YY     -26.6126
        XZ       0.6031     YZ      -0.8014     ZZ     -22.9343
    Octopole Moments (Debye-Ang^2)
       XXX     137.6130    XXY     -33.1318    XYY      44.8307
       YYY     -99.8123    XXZ     -47.7042    XYZ       1.6674
       YYZ     -45.8057    XZZ      39.3883    YZZ     -32.9856
       ZZZ    -124.1189
    Hexadecapole Moments (Debye-Ang^3)
      XXXX   -2438.5711   XXXY      69.2979   XXYY    -747.6268
      XYYY      59.2173   YYYY   -1879.0498   XXXZ     181.1267
      XXYZ    -245.0046   XYYZ      59.3298   YYYZ    -702.0301
      XXZZ    -628.1487   XYZZ      23.6748   YYZZ    -545.4267
      XZZZ     140.7623   YZZZ    -695.5508   ZZZZ   -1426.2235
 -----------------------------------------------------------------
 JobOver = TRUE
Archival summary:
1\1\sinatra\SP\ROProcedureUnspecified\6-31G\e216(\nmayhall\WedMay2414:36:262017WedMay2414:36:262017\0\\#,ROProcedureUnspecified,6-31G,\\0,17\H\H,1,1.78823\H,1,2.06314,2,130.189\H,3,1.78258,1,93.3156,2,-96.4011,0\H,1,2.07193,2,94.2887,3,-90.0318,0\H,5,1.76624,1,83.4991,2,-23.3915,0\H,6,2.06519,5,161.919,1,-83.4166,0\H,7,1.77257,6,87.231,5,86.7498,0\H,3,2.07693,1,84.2872,2,97.6103,0\H,9,1.77257,3,162.649,1,-143.629,0\H,10,2.06518,9,87.2307,3,135.068,0\H,11,1.76624,10,161.919,9,-86.7501,0\H,12,2.07192,11,83.4992,10,83.4164,0\H,13,1.78824,12,94.2885,11,23.3916,0\H,13,2.06314,12,87.2582,11,153.503,0\H,15,1.78258,13,93.3155,12,3.10214,0\He,4,12.0145,3,124.863,1,-127.372,0\He,10,14.3547,9,128.154,3,-106.833,0\\HF=-13.4088666\\@

 Total job time:  602.28s(wall), 601.54s(cpu) 
 Wed May 24 14:36:26 2017

        *************************************************************
        *                                                           *
        *  Thank you very much for using Q-Chem.  Have a nice day.  *
        *                                                           *
        *************************************************************


*** MISSION COMPLETED -- STARFLEET OUT ***

