16
	Energy:     -45.9321905
F         -2.51896       -2.61915        2.09844
F          0.78212        0.78287        1.51341
F         -2.20246       -0.09369        0.52564
F          2.54334       -1.43420        0.97807
F         -0.13444       -3.39674        0.67508
F          0.49385       -1.77947        3.03101
F          0.29136       -0.91388       -0.76621
F         -2.53309       -2.68480       -0.78243
H         -2.35183       -3.46898       -0.16598
H         -0.62393       -1.29443       -0.97984
H         -2.94545       -0.77240        0.64901
H          2.36223       -0.65020        0.36134
H          1.20700       -1.06179        2.96599
H         -1.61000       -2.66422        2.54522
H          0.78074       -3.01605        0.88891
H         -0.09799        0.79024        1.01021
