                  Welcome to Q-Chem
     A Quantum Leap Into The Future Of Chemistry


 Q-Chem 4.3, Q-Chem, Inc., Pleasanton, CA (2015)

 Y. Shao,  Z. Gan,  E. Epifanovsky,  A. T. B. Gilbert,  M. Wormit,  
 J. Kussmann,  A. W. Lange,  A. Behn,  J. Deng,  X. Feng,  D. Ghosh,  
 M. Goldey,  P. R. Horn,  L. D. Jacobson,  I. Kaliman,  R. Z. Khaliullin,  
 T. Kus,  A. Landau,  J. Liu,  E. I. Proynov,  Y. M. Rhee,  R. M. Richard,  
 M. A. Rohrdanz,  R. P. Steele,  E. J. Sundstrom,  H. L. Woodcock III,  
 P. M. Zimmerman,  D. Zuev,  B. Albrecht,  E. Alguire,  B. Austin,  
 S. A. Baeppler,  G. J. O. Beran,  Y. A. Bernard,  E. Berquist,  
 K. Brandhorst,  K. B. Bravaya,  S. T. Brown,  D. Casanova,  C.-M. Chang,  
 Y. Chen,  S. H. Chien,  K. D. Closser,  D. L. Crittenden,  M. Diedenhofen,  
 R. A. DiStasio Jr.,  H. Do,  A. D. Dutoi,  R. G. Edgar,  P.-T. Fang,  
 S. Fatehi,  Q. Feng,  L. Fusti-Molnar,  A. Ghysels,  
 A. Golubeva-Zadorozhnaya,  J. Gomes,  A. Gunina,  M. W. D. Hanson-Heine,  
 P. H. P. Harbach,  A. W. Hauser,  E. G. Hohenstein,  Z. C. Holden,  K. Hui,  
 T.-C. Jagau,  H. Ji,  B. Kaduk,  K. Khistyaev,  Jaehoon Kim,  Jihan Kim,  
 R. A. King,  P. Klunzinger,  D. Kosenkov,  T. Kowalczyk,  C. M. Krauter,  
 K. U. Lao,  A. Laurent,  K. V. Lawler,  S. Lehtola,  S. V. Levchenko,  
 C. Y. Lin,  Y.-S. Lin,  F. Liu,  E. Livshits,  R. C. Lochan,  A. Luenser,  
 P. Manohar,  S. F. Manzer,  S.-P. Mao,  N. Mardirossian,  A. V. Marenich,  
 L. A. Martinez-Martinez,  S. A. Maurer,  N. J. Mayhall,  K. Nanda,  
 C. M. Oana,  R. Olivares-Amaya,  D. P. O'Neill,  J. A. Parkhill,  
 T. M. Perrine,  R. Peverati,  P. A. Pieniazek,  F. Plasser,  A. Prociuk,  
 D. R. Rehn,  E. Rosta,  N. J. Russ,  N. Sergueev,  S. M. Sharada,  
 S. Sharma,  D. W. Small,  A. Sodt,  T. Stauch,  T. Stein,  D. Stuck,  
 Y.-C. Su,  A. J. W. Thom,  T. Tsuchimochi,  L. Vogt,  O. Vydrov,  T. Wang,  
 M. A. Watson,  J. Wenzel,  A. White,  C. F. Williams,  V. Vanovschi,  
 S. Yeganeh,  S. R. Yost,  Z.-Q. You,  I. Y. Zhang,  X. Zhang,  Y. Zhao,  
 B. R. Brooks,  G. K. L. Chan,  D. M. Chipman,  C. J. Cramer,  
 W. A. Goddard III,  M. S. Gordon,  W. J. Hehre,  A. Klamt,  
 H. F. Schaefer III,  M. W. Schmidt,  C. D. Sherrill,  D. G. Truhlar,  
 A. Warshel,  X. Xu,  A. Aspuru-Guzik,  R. Baer,  A. T. Bell,  N. A. Besley,  
 J.-D. Chai,  A. Dreuw,  B. D. Dunietz,  T. R. Furlani,  S. R. Gwaltney,  
 C.-P. Hsu,  Y. Jung,  J. Kong,  D. S. Lambrecht,  W. Liang,  C. Ochsenfeld,  
 V. A. Rassolov,  L. V. Slipchenko,  J. E. Subotnik,  T. Van Voorhis,  
 J. M. Herbert,  A. I. Krylov,  P. M. W. Gill,  M. Head-Gordon

 Contributors to earlier versions of Q-Chem not listed above: 
 R. D. Adamson,  J. Baker,  E. F. C. Byrd,  A. K. Chakraborty,  C.-L. Cheng,  
 H. Dachsel,  R. J. Doerksen,  G. Hawkins,  A. Heyden,  S. Hirata,  
 G. Kedziora,  F. J. Keil,  C. Kelley,  P. P. Korambath,  W. Kurlancheek,  
 A. M. Lee,  M. S. Lee,  D. Liotard,  I. Lotan,  P. E. Maslen,  N. Nair,  
 D. Neuhauser,  R. Olson,  B. Peters,  J. Ritchie,  N. E. Schultz,  
 N. Shenvi,  A. C. Simmonett,  K. S. Thanthiriwatte,  Q. Wu,  W. Zhang

 Please cite Q-Chem as follows:
 Y. Shao et al., Mol. Phys. 113, 184-215 (2015)
 DOI: 10.1080/00268976.2014.952696

 Q-Chem 4.3.0 for Intel X86 EM64T Linux

 Parts of Q-Chem use Armadillo 5.200.1 (Boston Tea Smuggler).
 http://arma.sourceforge.net/

 Q-Chem begins on Mon Mar 20 18:40:59 2017  


Host: 0

     Scratch files written to /home/nmayhall/scratch_qchem/qchem3514//
 Dec1416 |home|nmayhall|qcSoftware|qchem|qchem.svn-casman|libmdc|qstr_RNUM -1
 Using version located at /home/nmayhall/qcSoftware/qchem/qchem.svn-casman/bin/qchem


Total Memory Limit in MB = 2000
Mega-Array Size in MB = 62

Checking the input file for inconsistencies... 	...done.

 Q-Chem warning in module /home/nmayhall/qcSoftware/qchem/qchem.svn-casman/forms1/BasisType.C, line 1452:

 You are not using the predefined 5D/6D in this basis set.

Finally everything over in PARseQInput

--------------------------------------------------------------
User input:
--------------------------------------------------------------
$rem
	exchange 		hf
	unrestricted		1
	basis			6-31g*	
	aux_basis		rimp2-vdz
	scf_guess		core	
	scf_convergence		8
	purecart		1111

	symmetry		0
	sym_ignore		1

	!correlation		sf-cas
	!cas_n_spin_flip		1
	!cas_local		1
	gui			2
$end

$development
	1sf_heis_projection	1
$end

$molecule
0 17
H         -0.73854       -0.54065        0.08576
H         -2.31340       -1.01748       -0.67017
H         -2.09582        0.65549       -0.01146
H         -2.21044       -0.75437        1.11995
H          1.47674        3.07203        0.09828
H          0.16850        3.66022        1.20546
H          0.18287        1.93480        0.65668
H         -0.21686        3.25528       -0.51743
H          3.48850       -0.87553       -0.06084
H          2.29649        0.48578       -0.00191
H          1.93960       -1.06676        0.85992
H          1.91588       -1.00965       -0.95022
H          1.31031        1.17349       -2.51887
H          0.05197        1.55356       -3.76532
H         -0.44466        1.14372       -2.07386
H          0.23591       -0.14164       -3.15141
He	10	10	10	
He	-10	10	10	
$end


--------------------------------------------------------------
 ----------------------------------------------------------------
             Standard Nuclear Orientation (Angstroms)
    I     Atom           X                Y                Z
 ----------------------------------------------------------------
    1      H      -0.7385400000    -0.5406500000     0.0857600000
    2      H      -2.3134000000    -1.0174800000    -0.6701700000
    3      H      -2.0958200000     0.6554900000    -0.0114600000
    4      H      -2.2104400000    -0.7543700000     1.1199500000
    5      H       1.4767400000     3.0720300000     0.0982800000
    6      H       0.1685000000     3.6602200000     1.2054600000
    7      H       0.1828700000     1.9348000000     0.6566800000
    8      H      -0.2168600000     3.2552800000    -0.5174300000
    9      H       3.4885000000    -0.8755300000    -0.0608400000
   10      H       2.2964900000     0.4857800000    -0.0019100000
   11      H       1.9396000000    -1.0667600000     0.8599200000
   12      H       1.9158800000    -1.0096500000    -0.9502200000
   13      H       1.3103100000     1.1734900000    -2.5188700000
   14      H       0.0519700000     1.5535600000    -3.7653200000
   15      H      -0.4446600000     1.1437200000    -2.0738600000
   16      H       0.2359100000    -0.1416400000    -3.1514100000
   17      He     10.0000000000    10.0000000000    10.0000000000
   18      He    -10.0000000000    10.0000000000    10.0000000000
 ----------------------------------------------------------------
 Nuclear Repulsion Energy =    21.7022848765 hartrees
 There are       18 alpha and        2 beta electrons
 Requested basis set is 6-31G(d)
 There are 36 shells and 36 basis functions

Total QAlloc Memory Limit   2000 MB
Mega-Array Size        61 MB
MEM_STATIC part        62 MB

finished with qalloc call

 Q-Chem warning in module /home/nmayhall/qcSoftware/qchem/qchem.svn-casman/forms1/BasisType.C, line 1375:

 SAD: How to set up polarization functions for non-Pople basis?

 Requested basis set is rimp2-VDZ
 There are 106 shells and 242 basis functions
 Job number = 2, Threshold = 1.00E-11
Integral type ranges set in mkLRange.C for JobNum: 2  <1-7|1-7>
Symmetry turned off temporarily
 Using the largest function pair in Schwarz integrals
Total number of integrals generated =            1457
Symmetry turned back on
 A cutoff of  1.0D-11 yielded    503 shell pairs
 There are       503 function pairs
 Job number = 11, Threshold = 1.00E-11
Integral type ranges set in mkLRange.C for JobNum: 11  <1-1|8-8>

 -------------------------------------------------------
 OpenMP Integral Computing Module                       
 Release: version 1.0, May 2013, Q-Chem Inc. Pittsburgh 
 -------------------------------------------------------
 Integral Job Info:
 Integral job number is                      11
 Integral operator is                         1
 short-range coefficients                     0
 long-range coefficients              100000000
 Omega coefficients                           0
 if combine SR and LR in K                    0
 Integral screening is                        0
 Integral computing path is                   2
 max size of driver memory is            800000
 size of driver memory is                 11780
 size of scratch memory is               800000
 max col of scratch BK array                289
 max len of scratch array in speh3            1
 max len of scratch index in speh4            2
 max int batch size is                      520
 min int batch size is                       52
 fixed nKL is                               520
 max L of basis functions is                  0
 order of int derivative is                   0
 number of shells is                         36
 number of basis is                          36
 number of cartesian basis is                36
 number of contracted shell pairs           503
 number of primitive shell pairs           1361
 maxK2 (contraction) of shell pair            9
 max number of K2 of shell pair               1
 max number of CS2 of shell pair            267
 max number of PS2 of shell pair            801
 mem total for path MDJ                    8220
 -------------------------------------------------------
 Smallest overlap matrix eigenvalue = 1.80E-01
 Multipole matrices computed through 2nd order

  Scale SEOQF with 1.000000e-02/1.000000e-02/1.000000e-02

 Standard Electronic Orientation quadrupole field applied
GuessMan:  IGuess = 1
 Guess MOs from core Hamiltonian diagonalization
scfman initvdwdat 
 An unrestricted Hartree-Fock SCF calculation will be
 performed using Pulay DIIS extrapolation
 SCF converges when DIIS error is below 1.0E-08
Finding J and K together
 Job number = 22, Threshold = 1.00E-11
Integral type ranges set in mkLRange.C for JobNum: 22  <1-1|1-1>
Storing 1434.40% of integrals
Total number of integrals generated =          114841
 MakeJK  time:  CPU       0.03 s  wall       0.03 s
Fock build time:  0.03 s (CPU) 0.03 s (wall)
DIIS Errors:  Max 3.29E-01 RMS 2.56E-02

Current DIIS subspace size = 1
REM_GRID_RESTART_DIIS = 0

 ---------------------------------------
  Cycle       Energy         DIIS Error
 ---------------------------------------
    1     -11.2989206724      2.56E-02  00000
Finding J and K together
 Job number = 22, Threshold = 1.00E-11
Integral type ranges set in mkLRange.C for JobNum: 22  <1-1|1-1>
Storing 1434.40% of integrals
Reusing in-core integrals buffer for job 22
 MakeJK  time:  CPU       0.00 s  wall       0.01 s
Fock build time:  0.00 s (CPU) 0.01 s (wall)
DIIS Errors:  Max 2.54E-01 RMS 1.50E-02

Current DIIS subspace size = 2
REM_GRID_RESTART_DIIS = 0

    2     -13.2825854193      1.50E-02  00000
Finding J and K together
 Job number = 22, Threshold = 1.00E-11
Integral type ranges set in mkLRange.C for JobNum: 22  <1-1|1-1>
Storing 1434.40% of integrals
Reusing in-core integrals buffer for job 22
 MakeJK  time:  CPU       0.00 s  wall       0.01 s
Fock build time:  0.01 s (CPU) 0.01 s (wall)
DIIS Errors:  Max 9.57E-02 RMS 5.88E-03

Current DIIS subspace size = 3
REM_GRID_RESTART_DIIS = 0

    3     -13.3533059398      5.88E-03  00000
Finding J and K together
 Job number = 22, Threshold = 1.00E-11
Integral type ranges set in mkLRange.C for JobNum: 22  <1-1|1-1>
Storing 1434.40% of integrals
Reusing in-core integrals buffer for job 22
 MakeJK  time:  CPU       0.01 s  wall       0.01 s
Fock build time:  0.01 s (CPU) 0.01 s (wall)
DIIS Errors:  Max 7.16E-03 RMS 5.40E-04

Current DIIS subspace size = 4
REM_GRID_RESTART_DIIS = 0

    4     -13.3803361418      5.40E-04  00000
Finding J and K together
 Job number = 22, Threshold = 1.00E-11
Integral type ranges set in mkLRange.C for JobNum: 22  <1-1|1-1>
Storing 1434.40% of integrals
Reusing in-core integrals buffer for job 22
 MakeJK  time:  CPU       0.01 s  wall       0.01 s
Fock build time:  0.01 s (CPU) 0.01 s (wall)
DIIS Errors:  Max 1.38E-04 RMS 8.27E-06

Current DIIS subspace size = 5
REM_GRID_RESTART_DIIS = 0

    5     -13.3826919134      8.27E-06  00000
Finding J and K together
 Job number = 22, Threshold = 1.00E-11
Integral type ranges set in mkLRange.C for JobNum: 22  <1-1|1-1>
Storing 1434.40% of integrals
Reusing in-core integrals buffer for job 22
 MakeJK  time:  CPU       0.01 s  wall       0.01 s
Fock build time:  0.01 s (CPU) 0.01 s (wall)
DIIS Errors:  Max 1.31E-05 RMS 7.66E-07

Current DIIS subspace size = 6
REM_GRID_RESTART_DIIS = 0

    6     -13.3827950747      7.66E-07  00000
Finding J and K together
 Job number = 22, Threshold = 1.00E-11
Integral type ranges set in mkLRange.C for JobNum: 22  <1-1|1-1>
Storing 1434.40% of integrals
Reusing in-core integrals buffer for job 22
 MakeJK  time:  CPU       0.01 s  wall       0.01 s
Fock build time:  0.01 s (CPU) 0.01 s (wall)
DIIS Errors:  Max 8.38E-07 RMS 5.76E-08

Current DIIS subspace size = 7
REM_GRID_RESTART_DIIS = 0

    7     -13.3828108679      5.76E-08  00000
Finding J and K together
 Job number = 22, Threshold = 1.00E-11
Integral type ranges set in mkLRange.C for JobNum: 22  <1-1|1-1>
Storing 1434.40% of integrals
Reusing in-core integrals buffer for job 22
 MakeJK  time:  CPU       0.01 s  wall       0.01 s
Fock build time:  0.01 s (CPU) 0.01 s (wall)
DIIS Errors:  Max 2.11E-07 RMS 1.23E-08

Current DIIS subspace size = 8
REM_GRID_RESTART_DIIS = 0

    8     -13.3828138470      1.23E-08  00000
Finding J and K together
 Job number = 22, Threshold = 1.00E-11
Integral type ranges set in mkLRange.C for JobNum: 22  <1-1|1-1>
Storing 1434.40% of integrals
Reusing in-core integrals buffer for job 22
 MakeJK  time:  CPU       0.01 s  wall       0.01 s
Fock build time:  0.01 s (CPU) 0.01 s (wall)
DIIS Errors:  Max 1.09E-08 RMS 6.25E-10

Current DIIS subspace size = 9
REM_GRID_RESTART_DIIS = 0

    9     -13.3828141167      6.25E-10  00000 Convergence criterion met
 ---------------------------------------
 <S^2> = 72.0000
 SCF time:  CPU 0.10 s  wall 0.10 s
 SCF   energy in the final basis set = -13.3828141167
 Total energy in the final basis set = -13.3828141167
Symmetry turned off temporarily
 Analysis of SCF Wavefunction

 --------------------------------------------------------------

                    Orbital Energies (a.u.)
 --------------------------------------------------------------

 Alpha MOs
 -- Occupied --
 -0.914  -0.914  -0.726  -0.700  -0.698  -0.697  -0.487  -0.481
 -0.474  -0.467  -0.459  -0.457  -0.449  -0.443  -0.440  -0.438
 -0.434  -0.425
 -- Virtual --
  0.789   0.823   0.830   0.859   0.900   0.911   0.960   0.973
  0.976   0.991   1.007   1.036   1.047   1.186   1.194   1.204
  1.400   1.400

 Beta MOs
 -- Occupied --
 -0.914  -0.914
 -- Virtual --
 -0.070  -0.035  -0.032  -0.030   0.121   0.125   0.133   0.144
  0.158   0.160   0.177   0.187   0.191   0.195   0.203   0.216
  1.026   1.050   1.053   1.076   1.109   1.120   1.159   1.171
  1.174   1.187   1.202   1.228   1.248   1.381   1.388   1.396
  1.400   1.400
 --------------------------------------------------------------

          Ground-State Mulliken Net Atomic Charges

     Atom                 Charge (a.u.)    Spin (a.u.)
  --------------------------------------------------------
      1 H                    -0.000020       1.000020
      2 H                     0.000010       0.999990
      3 H                    -0.000081       1.000081
      4 H                     0.000097       0.999903
      5 H                    -0.000077       1.000077
      6 H                     0.000118       0.999882
      7 H                    -0.000020       1.000020
      8 H                    -0.000048       1.000048
      9 H                     0.000109       0.999891
     10 H                     0.000010       0.999990
     11 H                    -0.000059       1.000059
     12 H                    -0.000057       1.000057
     13 H                    -0.000065       1.000065
     14 H                     0.000124       0.999876
     15 H                     0.000016       0.999984
     16 H                    -0.000056       1.000056
     17 He                    0.000000       0.000000
     18 He                    0.000000      -0.000000
  --------------------------------------------------------
  Sum of atomic charges =    -0.000000
  Sum of spin   charges =    16.000000

 -----------------------------------------------------------------
                    Cartesian Multipole Moments
 -----------------------------------------------------------------
    Charge (ESU x 10^10)
                -0.0000
    Dipole Moment (Debye)
         X      -0.0003      Y       0.0005      Z       0.0011
       Tot       0.0012
    Quadrupole Moments (Debye-Ang)
        XX     -25.5319     XY       0.0193     YY     -25.5868
        XZ      -0.0057     YZ      -0.0134     ZZ     -25.5348
    Octopole Moments (Debye-Ang^2)
       XXX     -25.0693    XXY     -37.1419    XYY      -6.5345
       YYY    -114.0924    XXZ      -6.9306    XYZ      -0.0224
       YYZ      -6.7964    XZZ      -5.3604    YZZ     -37.7344
       ZZZ     -19.6350
    Hexadecapole Moments (Debye-Ang^3)
      XXXX   -1667.7881   XXXY     -12.9996   XXYY    -560.4499
      XYYY     -11.5122   YYYY   -1684.1113   XXXZ      18.6742
      XXYZ    -197.8503   XYYZ       4.7033   YYYZ    -602.8131
      XXZZ    -542.8070   XYZZ      -3.2765   YYZZ    -561.0803
      XZZZ      15.6890   YZZZ    -592.0300   ZZZZ   -1631.2412
 -----------------------------------------------------------------
 JobOver = TRUE
Archival summary:
1\1\sinatra\SP\HF\6-31G*\e216(\nmayhall\MonMar2018:40:592017MonMar2018:40:592017\0\\#,HF,6-31G*,\\0,17\H\H,1,1.80987\H,1,1.81009,2,60.0846\H,1,1.81076,2,60.0431,3,-70.5554,0\H,1,2.63307,2,110.31,3,-151.7,0\H,5,1.81131,1,139.459,2,147.862,0\H,6,1.81065,5,60.0237,1,-0.959826,0\H,7,1.81086,6,60.0452,5,-70.5123,0\H,7,2.6459,6,127.132,5,-99.3643,0\H,9,1.81039,7,161.062,6,-128.385,0\H,9,1.81121,7,114.496,6,162.928,0\H,11,1.8112,9,60.0005,7,89.002,0\H,1,2.68667,2,158.004,3,107.309,0\H,13,1.8111,1,87.8509,2,-80.3099,0\H,14,1.8108,13,60.0291,1,-71.0844,0\H,13,1.81133,1,131.287,2,-126.04,0\He,6,14.6354,5,144.227,1,-112.292,0\He,6,14.8639,5,120.837,1,115.817,0\\HF=-13.3828141\\@

 Total job time:  0.18s(wall), 0.18s(cpu) 
 Mon Mar 20 18:40:59 2017

        *************************************************************
        *                                                           *
        *  Thank you very much for using Q-Chem.  Have a nice day.  *
        *                                                           *
        *************************************************************


*** MISSION COMPLETED -- STARFLEET OUT ***

 
User input: 2 of 2 
 
                  Welcome to Q-Chem
     A Quantum Leap Into The Future Of Chemistry


 Q-Chem 4.3, Q-Chem, Inc., Pleasanton, CA (2015)

 Y. Shao,  Z. Gan,  E. Epifanovsky,  A. T. B. Gilbert,  M. Wormit,  
 J. Kussmann,  A. W. Lange,  A. Behn,  J. Deng,  X. Feng,  D. Ghosh,  
 M. Goldey,  P. R. Horn,  L. D. Jacobson,  I. Kaliman,  R. Z. Khaliullin,  
 T. Kus,  A. Landau,  J. Liu,  E. I. Proynov,  Y. M. Rhee,  R. M. Richard,  
 M. A. Rohrdanz,  R. P. Steele,  E. J. Sundstrom,  H. L. Woodcock III,  
 P. M. Zimmerman,  D. Zuev,  B. Albrecht,  E. Alguire,  B. Austin,  
 S. A. Baeppler,  G. J. O. Beran,  Y. A. Bernard,  E. Berquist,  
 K. Brandhorst,  K. B. Bravaya,  S. T. Brown,  D. Casanova,  C.-M. Chang,  
 Y. Chen,  S. H. Chien,  K. D. Closser,  D. L. Crittenden,  M. Diedenhofen,  
 R. A. DiStasio Jr.,  H. Do,  A. D. Dutoi,  R. G. Edgar,  P.-T. Fang,  
 S. Fatehi,  Q. Feng,  L. Fusti-Molnar,  A. Ghysels,  
 A. Golubeva-Zadorozhnaya,  J. Gomes,  A. Gunina,  M. W. D. Hanson-Heine,  
 P. H. P. Harbach,  A. W. Hauser,  E. G. Hohenstein,  Z. C. Holden,  K. Hui,  
 T.-C. Jagau,  H. Ji,  B. Kaduk,  K. Khistyaev,  Jaehoon Kim,  Jihan Kim,  
 R. A. King,  P. Klunzinger,  D. Kosenkov,  T. Kowalczyk,  C. M. Krauter,  
 K. U. Lao,  A. Laurent,  K. V. Lawler,  S. Lehtola,  S. V. Levchenko,  
 C. Y. Lin,  Y.-S. Lin,  F. Liu,  E. Livshits,  R. C. Lochan,  A. Luenser,  
 P. Manohar,  S. F. Manzer,  S.-P. Mao,  N. Mardirossian,  A. V. Marenich,  
 L. A. Martinez-Martinez,  S. A. Maurer,  N. J. Mayhall,  K. Nanda,  
 C. M. Oana,  R. Olivares-Amaya,  D. P. O'Neill,  J. A. Parkhill,  
 T. M. Perrine,  R. Peverati,  P. A. Pieniazek,  F. Plasser,  A. Prociuk,  
 D. R. Rehn,  E. Rosta,  N. J. Russ,  N. Sergueev,  S. M. Sharada,  
 S. Sharma,  D. W. Small,  A. Sodt,  T. Stauch,  T. Stein,  D. Stuck,  
 Y.-C. Su,  A. J. W. Thom,  T. Tsuchimochi,  L. Vogt,  O. Vydrov,  T. Wang,  
 M. A. Watson,  J. Wenzel,  A. White,  C. F. Williams,  V. Vanovschi,  
 S. Yeganeh,  S. R. Yost,  Z.-Q. You,  I. Y. Zhang,  X. Zhang,  Y. Zhao,  
 B. R. Brooks,  G. K. L. Chan,  D. M. Chipman,  C. J. Cramer,  
 W. A. Goddard III,  M. S. Gordon,  W. J. Hehre,  A. Klamt,  
 H. F. Schaefer III,  M. W. Schmidt,  C. D. Sherrill,  D. G. Truhlar,  
 A. Warshel,  X. Xu,  A. Aspuru-Guzik,  R. Baer,  A. T. Bell,  N. A. Besley,  
 J.-D. Chai,  A. Dreuw,  B. D. Dunietz,  T. R. Furlani,  S. R. Gwaltney,  
 C.-P. Hsu,  Y. Jung,  J. Kong,  D. S. Lambrecht,  W. Liang,  C. Ochsenfeld,  
 V. A. Rassolov,  L. V. Slipchenko,  J. E. Subotnik,  T. Van Voorhis,  
 J. M. Herbert,  A. I. Krylov,  P. M. W. Gill,  M. Head-Gordon

 Contributors to earlier versions of Q-Chem not listed above: 
 R. D. Adamson,  J. Baker,  E. F. C. Byrd,  A. K. Chakraborty,  C.-L. Cheng,  
 H. Dachsel,  R. J. Doerksen,  G. Hawkins,  A. Heyden,  S. Hirata,  
 G. Kedziora,  F. J. Keil,  C. Kelley,  P. P. Korambath,  W. Kurlancheek,  
 A. M. Lee,  M. S. Lee,  D. Liotard,  I. Lotan,  P. E. Maslen,  N. Nair,  
 D. Neuhauser,  R. Olson,  B. Peters,  J. Ritchie,  N. E. Schultz,  
 N. Shenvi,  A. C. Simmonett,  K. S. Thanthiriwatte,  Q. Wu,  W. Zhang

 Please cite Q-Chem as follows:
 Y. Shao et al., Mol. Phys. 113, 184-215 (2015)
 DOI: 10.1080/00268976.2014.952696

 Q-Chem 4.3.0 for Intel X86 EM64T Linux

 Parts of Q-Chem use Armadillo 5.200.1 (Boston Tea Smuggler).
 http://arma.sourceforge.net/

 Q-Chem begins on Mon Mar 20 18:40:59 2017  


Host: 0

     Scratch files written to /home/nmayhall/scratch_qchem/qchem3514//
 Dec1416 |home|nmayhall|qcSoftware|qchem|qchem.svn-casman|libmdc|qstr_RNUM -1
 Using version located at /home/nmayhall/qcSoftware/qchem/qchem.svn-casman/bin/qchem

 Turning off symmetry for CASMAN

Total Memory Limit in MB = 2000
Mega-Array Size in MB = 62

Checking the input file for inconsistencies... 	...done.

 Q-Chem warning in module /home/nmayhall/qcSoftware/qchem/qchem.svn-casman/forms1/BasisType.C, line 1452:

 You are not using the predefined 5D/6D in this basis set.

Finally everything over in PARseQInput

--------------------------------------------------------------
User input:
--------------------------------------------------------------
$rem
	exchange 		hf
	unrestricted		0
	basis			6-31g*	
	aux_basis		rimp2-vdz
	scf_guess		read	
	scf_convergence		8
	purecart		1111

	symmetry		0
	sym_ignore		1

	correlation		sf-cas
	cas_n_spin_flip		1
	cas_local		1
	gui			2
$end

$development
	1sf_heis_projection	1
	scf_corresponding_orbs	1
$end

$molecule
read
$end

--------------------------------------------------------------
 ----------------------------------------------------------------
             Standard Nuclear Orientation (Angstroms)
    I     Atom           X                Y                Z
 ----------------------------------------------------------------
    1      H      -0.7385400000    -0.5406500000     0.0857600000
    2      H      -2.3134000000    -1.0174800000    -0.6701700000
    3      H      -2.0958200000     0.6554900000    -0.0114600000
    4      H      -2.2104400000    -0.7543700000     1.1199500000
    5      H       1.4767400000     3.0720300000     0.0982800000
    6      H       0.1685000000     3.6602200000     1.2054600000
    7      H       0.1828700000     1.9348000000     0.6566800000
    8      H      -0.2168600000     3.2552800000    -0.5174300000
    9      H       3.4885000000    -0.8755300000    -0.0608400000
   10      H       2.2964900000     0.4857800000    -0.0019100000
   11      H       1.9396000000    -1.0667600000     0.8599200000
   12      H       1.9158800000    -1.0096500000    -0.9502200000
   13      H       1.3103100000     1.1734900000    -2.5188700000
   14      H       0.0519700000     1.5535600000    -3.7653200000
   15      H      -0.4446600000     1.1437200000    -2.0738600000
   16      H       0.2359100000    -0.1416400000    -3.1514100000
   17      He     10.0000000000    10.0000000000    10.0000000000
   18      He    -10.0000000000    10.0000000000    10.0000000000
 ----------------------------------------------------------------
 Nuclear Repulsion Energy =    21.7022848765 hartrees
 There are       18 alpha and        2 beta electrons
 Requested basis set is 6-31G(d)
 There are 36 shells and 36 basis functions

Total QAlloc Memory Limit   2000 MB
Mega-Array Size        61 MB
MEM_STATIC part        62 MB

finished with qalloc call

 Q-Chem warning in module /home/nmayhall/qcSoftware/qchem/qchem.svn-casman/forms1/BasisType.C, line 1375:

 SAD: How to set up polarization functions for non-Pople basis?

 Requested basis set is rimp2-VDZ
 There are 106 shells and 242 basis functions
 Job number = 2, Threshold = 1.00E-12
Integral type ranges set in mkLRange.C for JobNum: 2  <1-7|1-7>
Symmetry turned off temporarily
 Using the largest function pair in Schwarz integrals
Total number of integrals generated =            1463
Symmetry turned back on
 A cutoff of  1.0D-12 yielded    509 shell pairs
 There are       509 function pairs
 Job number = 11, Threshold = 1.00E-12
Integral type ranges set in mkLRange.C for JobNum: 11  <1-1|8-8>

 -------------------------------------------------------
 OpenMP Integral Computing Module                       
 Release: version 1.0, May 2013, Q-Chem Inc. Pittsburgh 
 -------------------------------------------------------
 Integral Job Info:
 Integral job number is                      11
 Integral operator is                         1
 short-range coefficients                     0
 long-range coefficients              100000000
 Omega coefficients                           0
 if combine SR and LR in K                    0
 Integral screening is                        0
 Integral computing path is                   2
 max size of driver memory is            800000
 size of driver memory is                 11780
 size of scratch memory is               800000
 max col of scratch BK array                289
 max len of scratch array in speh3            1
 max len of scratch index in speh4            2
 max int batch size is                      520
 min int batch size is                       52
 fixed nKL is                               520
 max L of basis functions is                  0
 order of int derivative is                   0
 number of shells is                         36
 number of basis is                          36
 number of cartesian basis is                36
 number of contracted shell pairs           509
 number of primitive shell pairs           1379
 maxK2 (contraction) of shell pair            9
 max number of K2 of shell pair               1
 max number of CS2 of shell pair            267
 max number of PS2 of shell pair            801
 mem total for path MDJ                    8220
 -------------------------------------------------------
 Smallest overlap matrix eigenvalue = 1.80E-01
 Multipole matrices computed through 2nd order

  Scale SEOQF with 1.000000e-02/1.000000e-02/1.000000e-02

 Standard Electronic Orientation quadrupole field applied
GuessMan:  IGuess = 1000
 Guess MOs from SCF MO coefficient file
 Reading MOs from coefficient file
 Reading MOs from coefficient file
scfman initvdwdat 
 A restricted Hartree-Fock SCF calculation will be
 performed using Geometric Direct Minimization
 SCF converges when RMS gradient is below 1.0E-08
Finding J and K together
 Job number = 22, Threshold = 1.00E-12
Integral type ranges set in mkLRange.C for JobNum: 22  <1-1|1-1>
Storing 1400.81% of integrals
Total number of integrals generated =          119032
 MakeJK  time:  CPU       0.03 s  wall       0.03 s
Fock build time:  0.03 s (CPU) 0.03 s (wall)
 ---------------------------------------
  Cycle       Energy        RMS Gradient
 ---------------------------------------
    1     -13.3828141435      9.57E-05  00000 Normal BFGS step
Finding J and K together
 Job number = 22, Threshold = 1.00E-12
Integral type ranges set in mkLRange.C for JobNum: 22  <1-1|1-1>
Storing 1400.81% of integrals
Reusing in-core integrals buffer for job 22
 MakeJK  time:  CPU       0.01 s  wall       0.01 s
Fock build time:  0.01 s (CPU) 0.01 s (wall)
    2     -13.3828141483      3.97E-10  00000 Convergence criterion met
 ---------------------------------------
 SCF time:  CPU 0.04 s  wall 0.04 s
 Obtaining Corresponding orbitals

 Forming corresponding orbitals block-by-block...
 Size of singly occupied alpha block:      16 : 16.0000
 Size of doubly occupied block:             2 : 2.0000
 Size of singly occupied beta block:        0 : 0.0000
 Size of unoccupied block:                 18 : 18.0000
 Use scf_boys =     0 (Canonical)
                    1 (Boys)
                    2 (Pipek-Mezey)
                    3 (ER)
 Build new fock matrix
 I'm here
 I'm here
 Calling AOints...
 Job number = 22, Threshold = 1.00E-12
Integral type ranges set in mkLRange.C for JobNum: 22  <1-1|1-1>
Storing 1400.81% of integrals
 done.
 E(SCF): disk=    -13.382814148322 current=    -13.382814148322 diff=  -1.421e-14
 SCF   energy in the final basis set = -13.3828141483
 Total energy in the final basis set = -13.3828141483
 DevKeyword Parameters: 
 1sf_heis_projection                   1
scf_corresponding_orbs                   1


 ========================================================
                       In SF-CAS-CI                      
 ========================================================
 DevKeyword Parameters: 
 1sf_heis_projection                   1
scf_corresponding_orbs                   1

 Forming orbitals for SF-CAS calculation.
NBas   : 36
NOrb   : 36
NDOcc  : 2
NSOcc  : 16
NDVir  : 18
ISpin  : 0
e_hf: -13.38281415
 Using OPT1 Orbitals: Favg | Favg | Favg 
 A/B mix in Doubly occupied F  : 0.50000000
 A/B mix in Singly occupied F  : 0.50000000
 A/B mix in Doubly unoccupied F: 0.50000000
 Max of F(beta)ds      : 3.308e-16
 Max of F(alpha)sv     : 5.262e-12
 Max of F(average)dv   : 2.285e-11
 Orbital Energies  (D):
    1    -0.91413112    -0.91413112
    2    -0.91412423    -0.91412423
 Orbital Energies  (S):
    3    -0.38331134    -0.38331134
    4    -0.35447977    -0.35447977
    5    -0.35214812    -0.35214812
    6    -0.35092367    -0.35092367
    7    -0.16232401    -0.16232401
    8    -0.15700193    -0.15700193
    9    -0.14916065    -0.14916065
   10    -0.14133786    -0.14133786
   11    -0.13168895    -0.13168895
   12    -0.13000354    -0.13000354
   13    -0.11869245    -0.11869245
   14    -0.11148116    -0.11148116
   15    -0.10862913    -0.10862913
   16    -0.10592575    -0.10592575
   17    -0.10042459    -0.10042459
   18    -0.08983291    -0.08983291
 Orbital Energies  (V):
   19     0.88545721     0.88545721
   20     0.91510923     0.91510923
   21     0.91997200     0.91997200
   22     0.94688856     0.94688856
   23     0.98532861     0.98532861
   24     0.99673248     0.99673248
   25     1.04221316     1.04221316
   26     1.05545237     1.05545237
   27     1.05846691     1.05846691
   28     1.07316369     1.07316369
   29     1.08888147     1.08888147
   30     1.11730140     1.11730140
   31     1.13347471     1.13347471
   32     1.27186752     1.27186752
   33     1.27945821     1.27945821
   34     1.28861468     1.28861468
   35     1.39985485     1.39985485
   36     1.39986174     1.39986174
 tr(Pa)     :   18.0000000000
 tr(Pb)     :    2.0000000000
 E(core) with new P : -58.23895440
 E(HF) with new P   : -13.38281415
 Difference in Ehf  :  -6.3949e-14

 Number of spin flips: 1
 Use cas_local =    0 (Canonical)
                    1 (Boys)
                    2 (Pipek-Mezey)
                    3 (ER)
 Using Boys orbitals in casman
 
 
 
Calling Get_Boys in C++
 
 
 
Orbital 4 Variance 21.13916931
Orbital 3 Variance 21.62248798
Orbital 16 Variance 23.07448250
Orbital 6 Variance 23.76197912
Orbital 2 Variance 24.28277801
Orbital 1 Variance 24.37727947
Orbital 12 Variance 25.35753523
Orbital 5 Variance 25.74117425
Orbital 14 Variance 26.51453686
Orbital 15 Variance 26.81921086
Orbital 7 Variance 26.91164490
Orbital 9 Variance 27.88671231
Orbital 10 Variance 28.67466856
Orbital 8 Variance 28.97175026
Orbital 13 Variance 29.90006292
Orbital 11 Variance 32.77011807
          ***** NUMBER OF SADDLE POINTS SO FAR = 0 ******

Initially in boys_jacobi.C before sweep, get_boys, boysval = 107.228229
In BOYS_JACOBI SWEEPS for get_boys, ending in round     6  because max_diff = 5.384892e-07


---> BEGIN 2nd Der Calculation    ******  
Guessing MaxD =  20 and MinD = 10
in get_boys.C: p = 0 guessthresh  52.2947237599 numsofar 24 MinD 10
in get_boys.C: p = 1 guessthresh  51.7947237599 numsofar 23 MinD 10
in get_boys.C: p = 2 guessthresh  51.5447237599 numsofar 8 MinD 10
DimInGuess 8 mineval  51.2947237599 guessthresh  51.5447237599
round 0 sizeofsub 8 eval0 5.067772e+01 diffeval0 1.000497e+05 length_qM 1.130981e+00 thresh 1.000000e-08
round 1 sizeofsub 9 eval0 5.012752e+01 diffeval0 5.502019e-01 length_qM 1.809263e-01 thresh 1.000000e-08
round 2 sizeofsub 10 eval0 5.012545e+01 diffeval0 2.067918e-03 length_qM 2.485134e-01 thresh 1.000000e-08
round 3 sizeofsub 11 eval0 5.012460e+01 diffeval0 8.530567e-04 length_qM 1.459635e-02 thresh 1.000000e-08
round 4 sizeofsub 12 eval0 5.012452e+01 diffeval0 7.318370e-05 length_qM 2.198727e-02 thresh 1.000000e-08
round 5 sizeofsub 13 eval0 5.012452e+01 diffeval0 3.523345e-06 length_qM 3.280856e-03 thresh 1.000000e-08
round 6 sizeofsub 14 eval0 5.012452e+01 diffeval0 2.244909e-07 length_qM 2.022632e-04 thresh 1.000000e-08
round 7 sizeofsub 15 eval0 5.012452e+01 diffeval0 9.685408e-10 length_qM 8.378261e-05 thresh 1.000000e-08
round 8 sizeofsub 16 eval0 5.012452e+01 diffeval0 1.610516e-10 length_qM 3.240915e-05 thresh 1.000000e-08
round 9 sizeofsub 17 eval0 5.012452e+01 diffeval0 3.593215e-11 length_qM 8.069507e-06 thresh 1.000000e-08
round 10 sizeofsub 18 eval0 5.012452e+01 diffeval0 3.316103e-11 length_qM 1.109305e-05 thresh 1.000000e-08
round 11 sizeofsub 19 eval0 5.012452e+01 diffeval0 8.952838e-13 length_qM 6.429833e-07 thresh 1.000000e-08
Converged to smallest eigenvalue: eval0 5.012452e+01

Success!!! No Negative Eigenvalues: Ending Get Boys in C++ ...Bye Bye
Orbital 14 Variance 2.74330348
Orbital 9 Variance 2.74460153
Orbital 15 Variance 2.74616380
Orbital 12 Variance 2.75113103
Orbital 16 Variance 2.75871115
Orbital 8 Variance 2.76152204
Orbital 13 Variance 2.76203469
Orbital 5 Variance 2.76295078
Orbital 6 Variance 2.76475966
Orbital 7 Variance 2.77028806
Orbital 11 Variance 2.77130874
Orbital 3 Variance 2.77273614
Orbital 2 Variance 2.77404530
Orbital 1 Variance 2.77407968
Orbital 4 Variance 2.77507148
Orbital 10 Variance 2.77554609
EXECUTING ORTHO_FUNC DESTRUCTOR

 Dimensions of orbital sub-spaces:    
 Number Hole Orbs:Alpha:Beta:       2    2    2
 Number Active Orbs:Alpha:Beta:    16   15    1
 Number Part Orbs:Alpha:Beta:      18    0    0

 Dimensions in SF-RAS-hp calculation: 
 Number of active space determinants:  256
 Number of hole space determinants:    3872
 Number of part space determinants:    34848
 Number of hole-part determinants:     536868
 Total 1x space:                       38976
 Total singles space:                  575844
 REM_MEM_TOT: 2000
 Memory Used: 0
 Memory Left: 2000
 Memory Need: 4
 Constructing 1e MO integrals
 Form (P|Q)**(-1/2)...
 Job number = 66, Threshold = 1.00E-12
Integral type ranges set in mkLRange.C for JobNum: 66  <2-7|2-7>
Symmetry turned off temporarily
Storing 1400.81% of integrals
Total number of integrals generated =           33759
Symmetry turned back on
 Forming (pq|P)...
 Forming Active-Active (aa|P) integrals...

 Entering first-index batching code with I1Strt =    3 batch size =   16
 Job number = 65, Threshold = 1.00E-12
Integral type ranges set in mkLRange.C for JobNum: 65  <1-1|2-7>
Symmetry turned off temporarily
Storing 1400.81% of integrals
Total number of integrals generated =          131322
Symmetry turned back on
 Forming Active-Active B integrals...
 Contracting B matrices to form 2e integrals. 
 Forming 2J-K over o,v with exact integrals
 Calling AOints... Job number = 22, Threshold = 1.00E-12
Integral type ranges set in mkLRange.C for JobNum: 22  <1-1|1-1>
Storing 1400.81% of integrals
Total number of integrals generated =          119032
 done.

 ROHF energy found on disk: 
 E(ROHF):         -13.38281415
-13.38281415
 First 10 Diagonal elements of H: 
 111111111111111_ | 1_______________        -12.80798213
 111111111111111_ | _1______________        -12.99009177
 111111111111111_ | __1_____________        -12.85140892
 111111111111111_ | ___1____________        -12.83783372
 111111111111111_ | ____1___________        -12.88155639
 111111111111111_ | _____1__________        -12.83830382
 111111111111111_ | ______1_________        -12.83463104
 111111111111111_ | _______1________        -12.83554657
 111111111111111_ | ________1_______        -12.91385349
 111111111111111_ | _________1______        -12.99077282
 Fill S2_CAS Matrix...  done.
 Fill H_CAS Matrix...  done.

 Diagonalizing H_CAS 
 Entering cast_sfcas_to_sfcis
 ===================================================================
 Theory           State:          Energy (au)       (eV)       <S2>
 -------------------------------------------------------------------
 SF-CAS               1:       -13.4448784851     0.0000    56.0000
 SF-CAS               2:       -13.4438441953     0.0281    56.0000
 SF-CAS               3:       -13.4426952531     0.0594    56.0000
 SF-CAS               4:       -13.4413254768     0.0967    56.0000
 SF-CAS               5:       -13.4412274276     0.0994    56.0000
 SF-CAS               6:       -13.4406291329     0.1156    56.0000
 SF-CAS               7:       -13.4402585723     0.1257    56.0000
 SF-CAS               8:       -13.4398270680     0.1375    56.0000
 SF-CAS               9:       -13.4397934310     0.1384    56.0000
 SF-CAS              10:       -13.4395682455     0.1445    56.0000
 SF-CAS              11:       -13.4394979537     0.1464    56.0000
 SF-CAS              12:       -13.4392476619     0.1532    56.0000
 SF-CAS              13:       -13.3861003042     1.5995    56.0000
 SF-CAS              14:       -13.3858700216     1.6057    56.0000
 SF-CAS              15:       -13.3854567171     1.6170    56.0000
 SF-CAS              16:       -13.3828141483     1.6889    72.0000
 SF-CAS              17:       -13.1341569808     8.4552    56.0000
 SF-CAS              18:       -13.1327283495     8.4941    56.0000
 SF-CAS              19:       -13.1301915635     8.5632    56.0000
 SF-CAS              20:       -13.1295239064     8.5813    56.0000
 SF-CAS              21:       -13.1286192955     8.6059    56.0000
 SF-CAS              22:       -13.1261240647     8.6738    56.0000
 SF-CAS              23:       -13.1243251850     8.7228    56.0000
 SF-CAS              24:       -13.1229962964     8.7589    56.0000
 SF-CAS              25:       -13.1220556406     8.7845    56.0000
 SF-CAS              26:       -13.1199130526     8.8428    56.0000
 SF-CAS              27:       -13.1187994378     8.8731    56.0000
 SF-CAS              28:       -13.1181099425     8.8919    56.0000
 SF-CAS              29:       -13.1152112554     8.9708    56.0000
 SF-CAS              30:       -13.1130316854     9.0301    56.0000
 SF-CAS              31:       -13.1123749984     9.0480    56.0000
 SF-CAS              32:       -13.1079214905     9.1692    56.0000
 SF-CAS              33:       -13.1066873805     9.2027    56.0000
 SF-CAS              34:       -13.1050724391     9.2467    56.0000
 SF-CAS              35:       -13.1012824823     9.3498    56.0000
 SF-CAS              36:       -13.0989200745     9.4141    56.0000
 SF-CAS              37:       -13.0982271392     9.4330    56.0000
 SF-CAS              38:       -13.0944501784     9.5357    56.0000
 SF-CAS              39:       -13.0903382541     9.6476    56.0000
 SF-CAS              40:       -13.0878780357     9.7146    56.0000
 SF-CAS              41:       -13.0865347253     9.7511    56.0000
 SF-CAS              42:       -13.0849031342     9.7955    56.0000
 SF-CAS              43:       -13.0836422437     9.8298    56.0000
 SF-CAS              44:       -13.0820505162     9.8731    56.0000
 SF-CAS              45:       -13.0795930640     9.9400    56.0000
 SF-CAS              46:       -13.0751170234    10.0618    56.0000
 SF-CAS              47:       -13.0730081436    10.1192    56.0000
 SF-CAS              48:       -13.0701695119    10.1964    56.0000
 SF-CAS              49:       -13.0698860669    10.2042    56.0000
 SF-CAS              50:       -13.0673570415    10.2730    56.0000
 SF-CAS              51:       -13.0633482719    10.3821    56.0000
 SF-CAS              52:       -13.0614820436    10.4328    56.0000
 SF-CAS              53:       -13.0596354768    10.4831    56.0000
 SF-CAS              54:       -13.0584091742    10.5165    56.0000
 SF-CAS              55:       -13.0553760610    10.5990    56.0000
 SF-CAS              56:       -13.0529054545    10.6662    56.0000
 SF-CAS              57:       -13.0518604012    10.6947    56.0000
 SF-CAS              58:       -13.0505722831    10.7297    56.0000
 SF-CAS              59:       -13.0498705141    10.7488    56.0000
 SF-CAS              60:       -13.0478206030    10.8046    56.0000
 SF-CAS              61:       -13.0459274638    10.8561    56.0000
 SF-CAS              62:       -13.0408618556    10.9940    56.0000
 SF-CAS              63:       -13.0344798877    11.1676    56.0000
 SF-CAS              64:       -13.0329376515    11.2096    56.0000
 SF-CAS              65:       -13.0039123965    11.9994    56.0000
 SF-CAS              66:       -13.0019640966    12.0524    56.0000
 SF-CAS              67:       -13.0004815739    12.0928    56.0000
 SF-CAS              68:       -12.9994010984    12.1222    56.0000
 SF-CAS              69:       -12.9991585506    12.1288    56.0000
 SF-CAS              70:       -12.9981660564    12.1558    56.0000
 SF-CAS              71:       -12.9974382864    12.1756    56.0000
 SF-CAS              72:       -12.9969724386    12.1883    56.0000
 SF-CAS              73:       -12.9965211239    12.2005    56.0000
 SF-CAS              74:       -12.9955751885    12.2263    56.0000
 SF-CAS              75:       -12.9951293998    12.2384    56.0000
 SF-CAS              76:       -12.9949765101    12.2426    56.0000
 SF-CAS              77:       -12.9945159467    12.2551    56.0000
 SF-CAS              78:       -12.9937695870    12.2754    56.0000
 SF-CAS              79:       -12.9933656919    12.2864    56.0000
 SF-CAS              80:       -12.9927568350    12.3030    56.0000
 SF-CAS              81:       -12.9916236633    12.3338    56.0000
 SF-CAS              82:       -12.9907807279    12.3567    56.0000
 SF-CAS              83:       -12.9902351768    12.3716    56.0000
 SF-CAS              84:       -12.9899271981    12.3800    56.0000
 SF-CAS              85:       -12.9893755094    12.3950    56.0000
 SF-CAS              86:       -12.9883941990    12.4217    56.0000
 SF-CAS              87:       -12.9880532181    12.4310    56.0000
 SF-CAS              88:       -12.9834411194    12.5565    56.0000
 SF-CAS              89:       -12.9254816168    14.1336    56.0000
 SF-CAS              90:       -12.9232341965    14.1948    56.0000
 SF-CAS              91:       -12.9182040059    14.3317    56.0000
 SF-CAS              92:       -12.9162371550    14.3852    56.0000
 SF-CAS              93:       -12.9142561514    14.4391    56.0000
 SF-CAS              94:       -12.9131770747    14.4685    56.0000
 SF-CAS              95:       -12.9114986594    14.5141    56.0000
 SF-CAS              96:       -12.9097391196    14.5620    56.0000
 SF-CAS              97:       -12.9082959949    14.6013    56.0000
 SF-CAS              98:       -12.9074267247    14.6249    56.0000
 SF-CAS              99:       -12.9066744534    14.6454    56.0000
 SF-CAS             100:       -12.9035024195    14.7317    56.0000
 SF-CAS             101:       -12.9029201256    14.7476    56.0000
 SF-CAS             102:       -12.8985317908    14.8670    56.0000
 SF-CAS             103:       -12.8965500765    14.9209    56.0000
 SF-CAS             104:       -12.8940930554    14.9878    56.0000
 SF-CAS             105:       -12.8927165614    15.0252    56.0000
 SF-CAS             106:       -12.8919225983    15.0468    56.0000
 SF-CAS             107:       -12.8905372412    15.0845    56.0000
 SF-CAS             108:       -12.8891620721    15.1220    56.0000
 SF-CAS             109:       -12.8880668447    15.1518    56.0000
 SF-CAS             110:       -12.8871747746    15.1760    56.0000
 SF-CAS             111:       -12.8858060094    15.2133    56.0000
 SF-CAS             112:       -12.8854855497    15.2220    56.0000
 SF-CAS             113:       -12.8818569283    15.3207    56.0000
 SF-CAS             114:       -12.8813517370    15.3345    56.0000
 SF-CAS             115:       -12.8808610722    15.3478    56.0000
 SF-CAS             116:       -12.8789717693    15.3993    56.0000
 SF-CAS             117:       -12.8784626411    15.4131    56.0000
 SF-CAS             118:       -12.8775996391    15.4366    56.0000
 SF-CAS             119:       -12.8761626161    15.4757    56.0000
 SF-CAS             120:       -12.8747028228    15.5154    56.0000
 SF-CAS             121:       -12.8740319541    15.5337    56.0000
 SF-CAS             122:       -12.8736985787    15.5427    56.0000
 SF-CAS             123:       -12.8726832144    15.5704    56.0000
 SF-CAS             124:       -12.8715345246    15.6016    56.0000
 SF-CAS             125:       -12.8709692858    15.6170    56.0000
 SF-CAS             126:       -12.8693962989    15.6598    56.0000
 SF-CAS             127:       -12.8687604058    15.6771    56.0000
 SF-CAS             128:       -12.8682402530    15.6913    56.0000
 SF-CAS             129:       -12.8669555701    15.7262    56.0000
 SF-CAS             130:       -12.8664573481    15.7398    56.0000
 SF-CAS             131:       -12.8656229339    15.7625    56.0000
 SF-CAS             132:       -12.8651710500    15.7748    56.0000
 SF-CAS             133:       -12.8633041246    15.8256    56.0000
 SF-CAS             134:       -12.8627912159    15.8396    56.0000
 SF-CAS             135:       -12.8618179951    15.8660    56.0000
 SF-CAS             136:       -12.8608608095    15.8921    56.0000
 SF-CAS             137:       -12.8595559947    15.9276    56.0000
 SF-CAS             138:       -12.8592567133    15.9357    56.0000
 SF-CAS             139:       -12.8566385396    16.0070    56.0000
 SF-CAS             140:       -12.8561182586    16.0211    56.0000
 SF-CAS             141:       -12.8552521695    16.0447    56.0000
 SF-CAS             142:       -12.8547102475    16.0595    56.0000
 SF-CAS             143:       -12.8534861442    16.0928    56.0000
 SF-CAS             144:       -12.8531955138    16.1007    56.0000
 SF-CAS             145:       -12.8522251770    16.1271    56.0000
 SF-CAS             146:       -12.8515224687    16.1462    56.0000
 SF-CAS             147:       -12.8508733292    16.1639    56.0000
 SF-CAS             148:       -12.8500880073    16.1852    56.0000
 SF-CAS             149:       -12.8492431037    16.2082    56.0000
 SF-CAS             150:       -12.8489910762    16.2151    56.0000
 SF-CAS             151:       -12.8486453197    16.2245    56.0000
 SF-CAS             152:       -12.8479719100    16.2428    56.0000
 SF-CAS             153:       -12.8462811814    16.2888    56.0000
 SF-CAS             154:       -12.8456978514    16.3047    56.0000
 SF-CAS             155:       -12.8449460304    16.3252    56.0000
 SF-CAS             156:       -12.8447878495    16.3295    56.0000
 SF-CAS             157:       -12.8441872011    16.3458    56.0000
 SF-CAS             158:       -12.8429023136    16.3808    56.0000
 SF-CAS             159:       -12.8421753514    16.4005    56.0000
 SF-CAS             160:       -12.8408375335    16.4370    56.0000
 SF-CAS             161:       -12.8402019460    16.4542    56.0000
 SF-CAS             162:       -12.8397309558    16.4671    56.0000
 SF-CAS             163:       -12.8395458393    16.4721    56.0000
 SF-CAS             164:       -12.8389672779    16.4878    56.0000
 SF-CAS             165:       -12.8371701099    16.5367    56.0000
 SF-CAS             166:       -12.8363962719    16.5578    56.0000
 SF-CAS             167:       -12.8353757320    16.5856    56.0000
 SF-CAS             168:       -12.8343606794    16.6132    56.0000
 SF-CAS             169:       -12.8330070588    16.6500    56.0000
 SF-CAS             170:       -12.8328128607    16.6553    56.0000
 SF-CAS             171:       -12.8318193673    16.6824    56.0000
 SF-CAS             172:       -12.8310766830    16.7026    56.0000
 SF-CAS             173:       -12.8306364641    16.7145    56.0000
 SF-CAS             174:       -12.8293324167    16.7500    56.0000
 SF-CAS             175:       -12.8288205446    16.7640    56.0000
 SF-CAS             176:       -12.8282676656    16.7790    56.0000
 SF-CAS             177:       -12.8276193554    16.7966    56.0000
 SF-CAS             178:       -12.8259570561    16.8419    56.0000
 SF-CAS             179:       -12.8251776096    16.8631    56.0000
 SF-CAS             180:       -12.8241653982    16.8906    56.0000
 SF-CAS             181:       -12.8229147222    16.9247    56.0000
 SF-CAS             182:       -12.8218926711    16.9525    56.0000
 SF-CAS             183:       -12.8215742185    16.9611    56.0000
 SF-CAS             184:       -12.8211039739    16.9739    56.0000
 SF-CAS             185:       -12.8203342806    16.9949    56.0000
 SF-CAS             186:       -12.8198354806    17.0085    56.0000
 SF-CAS             187:       -12.8187541440    17.0379    56.0000
 SF-CAS             188:       -12.8177322610    17.0657    56.0000
 SF-CAS             189:       -12.8173740315    17.0754    56.0000
 SF-CAS             190:       -12.8167004905    17.0938    56.0000
 SF-CAS             191:       -12.8161504405    17.1087    56.0000
 SF-CAS             192:       -12.8148817109    17.1433    56.0000
 SF-CAS             193:       -12.8129248241    17.1965    56.0000
 SF-CAS             194:       -12.8123912926    17.2110    56.0000
 SF-CAS             195:       -12.8111652968    17.2444    56.0000
 SF-CAS             196:       -12.8095835903    17.2874    56.0000
 SF-CAS             197:       -12.8088554774    17.3072    56.0000
 SF-CAS             198:       -12.8084422360    17.3185    56.0000
 SF-CAS             199:       -12.8072878222    17.3499    56.0000
 SF-CAS             200:       -12.8067397119    17.3648    56.0000
 SF-CAS             201:       -12.8060803777    17.3828    56.0000
 SF-CAS             202:       -12.8039901048    17.4396    56.0000
 SF-CAS             203:       -12.8015042598    17.5073    56.0000
 SF-CAS             204:       -12.8007918199    17.5267    56.0000
 SF-CAS             205:       -12.7978729840    17.6061    56.0000
 SF-CAS             206:       -12.7961920398    17.6518    56.0000
 SF-CAS             207:       -12.7938756938    17.7149    56.0000
 SF-CAS             208:       -12.7930895128    17.7363    56.0000
 SF-CAS             209:       -12.7879942957    17.8749    56.0000
 SF-CAS             210:       -12.7871337303    17.8983    56.0000
 SF-CAS             211:       -12.7866945513    17.9103    56.0000
 SF-CAS             212:       -12.7857330663    17.9364    56.0000
 SF-CAS             213:       -12.7846148722    17.9669    56.0000
 SF-CAS             214:       -12.7843578811    17.9739    56.0000
 SF-CAS             215:       -12.7836274918    17.9937    56.0000
 SF-CAS             216:       -12.7829643869    18.0118    56.0000
 SF-CAS             217:       -12.7816679499    18.0471    56.0000
 SF-CAS             218:       -12.7804937841    18.0790    56.0000
 SF-CAS             219:       -12.7801449796    18.0885    56.0000
 SF-CAS             220:       -12.7785733313    18.1313    56.0000
 SF-CAS             221:       -12.6492642260    21.6500    56.0000
 SF-CAS             222:       -12.6464800206    21.7257    56.0000
 SF-CAS             223:       -12.6429972317    21.8205    56.0000
 SF-CAS             224:       -12.6403516235    21.8925    56.0000
 SF-CAS             225:       -12.6371584670    21.9794    56.0000
 SF-CAS             226:       -12.6358366068    22.0154    56.0000
 SF-CAS             227:       -12.6311641772    22.1425    56.0000
 SF-CAS             228:       -12.6289243835    22.2035    56.0000
 SF-CAS             229:       -12.6270407995    22.2547    56.0000
 SF-CAS             230:       -12.6241912981    22.3323    56.0000
 SF-CAS             231:       -12.6209781832    22.4197    56.0000
 SF-CAS             232:       -12.6194405440    22.4615    56.0000
 SF-CAS             233:       -12.6169711842    22.5287    56.0000
 SF-CAS             234:       -12.6151466949    22.5784    56.0000
 SF-CAS             235:       -12.6107861354    22.6970    56.0000
 SF-CAS             236:       -12.6068423380    22.8043    56.0000
 SF-CAS             237:       -12.6025154395    22.9221    56.0000
 SF-CAS             238:       -12.6016469481    22.9457    56.0000
 SF-CAS             239:       -12.5979526933    23.0462    56.0000
 SF-CAS             240:       -12.5959955449    23.0995    56.0000
 SF-CAS             241:       -12.5933433204    23.1717    56.0000
 SF-CAS             242:       -12.5922369627    23.2018    56.0000
 SF-CAS             243:       -12.5913237197    23.2266    56.0000
 SF-CAS             244:       -12.5900596798    23.2610    56.0000
 SF-CAS             245:       -12.5880882316    23.3147    56.0000
 SF-CAS             246:       -12.5843181314    23.4173    56.0000
 SF-CAS             247:       -12.5830853793    23.4508    56.0000
 SF-CAS             248:       -12.5808564569    23.5115    56.0000
 SF-CAS             249:       -12.5755157813    23.6568    56.0000
 SF-CAS             250:       -12.5736878036    23.7065    56.0000
 SF-CAS             251:       -12.5718304822    23.7571    56.0000
 SF-CAS             252:       -12.5681476785    23.8573    56.0000
 SF-CAS             253:       -12.5648295485    23.9476    56.0000
 SF-CAS             254:       -12.5611140883    24.0487    56.0000
 SF-CAS             255:       -12.5579476896    24.1349    56.0000
 SF-CAS             256:       -12.5552575515    24.2081    56.0000
 ===================================================================

              Active Space Coefficients > 0.20
 -------------------------------------------------------------------
 State  1                       Configuration         Coeff.   <S^2>
 -------------------------------------------------------------------
          11111111111111_1 | ______________1_      -0.304570  57.000
          1111111111111_11 | _____________1__      -0.426402  57.000
          11111111111_1111 | ___________1____       0.292081  57.000
          11111111_1111111 | ________1_______       0.371106  57.000
          1111_11111111111 | ____1___________      -0.290493  57.000
          1_11111111111111 | _1______________      -0.225122  57.000
 -------------------------------------------------------------------
 State  2                       Configuration         Coeff.   <S^2>
 -------------------------------------------------------------------
          11111111111111_1 | ______________1_       0.412564  57.000
          1111111111111_11 | _____________1__      -0.527876  57.000
          111111111111_111 | ____________1___      -0.277319  57.000
          11111111_1111111 | ________1_______      -0.343595  57.000
          11_1111111111111 | __1_____________       0.280723  57.000
 -------------------------------------------------------------------
 State  3                       Configuration         Coeff.   <S^2>
 -------------------------------------------------------------------
          11111111111111_1 | ______________1_       0.425063  57.000
          11111111111_1111 | ___________1____       0.318988  57.000
          111111111_111111 | _________1______      -0.229359  57.000
          11111111_1111111 | ________1_______       0.267655  57.000
          11111_1111111111 | _____1__________       0.371322  57.000
          1111_11111111111 | ____1___________       0.234729  57.000
          1_11111111111111 | _1______________      -0.247014  57.000
          _111111111111111 | 1_______________      -0.224695  57.000
 -------------------------------------------------------------------
 State  4                       Configuration         Coeff.   <S^2>
 -------------------------------------------------------------------
          111111111111111_ | _______________1      -0.338968  57.000
          111111111111_111 | ____________1___      -0.305493  57.000
          11111111111_1111 | ___________1____       0.262171  57.000
          1111111_11111111 | _______1________      -0.493492  57.000
          111_111111111111 | ___1____________      -0.365801  57.000
          _111111111111111 | 1_______________      -0.333762  57.000
 -------------------------------------------------------------------
 State  5                       Configuration         Coeff.   <S^2>
 -------------------------------------------------------------------
          111111111111_111 | ____________1___      -0.292080  57.000
          11111111111_1111 | ___________1____      -0.505899  57.000
          11111111_1111111 | ________1_______       0.386205  57.000
          111111_111111111 | ______1_________      -0.298466  57.000
          111_111111111111 | ___1____________      -0.217491  57.000
          11_1111111111111 | __1_____________      -0.290422  57.000
 -------------------------------------------------------------------
 State  6                       Configuration         Coeff.   <S^2>
 -------------------------------------------------------------------
          111111111111111_ | _______________1      -0.289536  57.000
          11111111111111_1 | ______________1_       0.303363  57.000
          1111111111_11111 | __________1_____       0.313343  57.000
          11111111_1111111 | ________1_______       0.208279  57.000
          1111111_11111111 | _______1________       0.358456  57.000
          11111_1111111111 | _____1__________      -0.306914  57.000
          1111_11111111111 | ____1___________      -0.462591  57.000
 -------------------------------------------------------------------
 State  7                       Configuration         Coeff.   <S^2>
 -------------------------------------------------------------------
          111111111111111_ | _______________1       0.414868  57.000
          111111111111_111 | ____________1___      -0.315269  57.000
          1111111111_11111 | __________1_____       0.259226  57.000
          11111111_1111111 | ________1_______      -0.314818  57.000
          11111_1111111111 | _____1__________      -0.376520  57.000
          111_111111111111 | ___1____________      -0.211030  57.000
          1_11111111111111 | _1______________      -0.279109  57.000
 -------------------------------------------------------------------
 State  8                       Configuration         Coeff.   <S^2>
 -------------------------------------------------------------------
          111111111111111_ | _______________1      -0.215205  57.000
          1111111111111_11 | _____________1__      -0.298558  57.000
          111111_111111111 | ______1_________       0.239216  57.000
          1111_11111111111 | ____1___________       0.489809  57.000
          111_111111111111 | ___1____________       0.204110  57.000
          11_1111111111111 | __1_____________      -0.527787  57.000
 -------------------------------------------------------------------
 State  9                       Configuration         Coeff.   <S^2>
 -------------------------------------------------------------------
          111111111111111_ | _______________1      -0.261971  57.000
          111111111111_111 | ____________1___      -0.405100  57.000
          1111111_11111111 | _______1________       0.250749  57.000
          11111_1111111111 | _____1__________       0.367862  57.000
          111_111111111111 | ___1____________      -0.233650  57.000
          11_1111111111111 | __1_____________       0.231808  57.000
          _111111111111111 | 1_______________       0.451009  57.000
 -------------------------------------------------------------------
 State  10                      Configuration         Coeff.   <S^2>
 -------------------------------------------------------------------
          1111111111_11111 | __________1_____       0.337263  57.000
          1111111_11111111 | _______1________      -0.293174  57.000
          111111_111111111 | ______1_________      -0.571463  57.000
          111_111111111111 | ___1____________       0.401588  57.000
          _111111111111111 | 1_______________       0.296749  57.000
 -------------------------------------------------------------------
 State  11                      Configuration         Coeff.   <S^2>
 -------------------------------------------------------------------
          111111111111_111 | ____________1___       0.237929  57.000
          11111111111_1111 | ___________1____       0.216870  57.000
          1111111111_11111 | __________1_____      -0.497780  57.000
          111111_111111111 | ______1_________      -0.294625  57.000
          11111_1111111111 | _____1__________      -0.255649  57.000
          111_111111111111 | ___1____________      -0.280628  57.000
          11_1111111111111 | __1_____________      -0.244989  57.000
          _111111111111111 | 1_______________       0.268656  57.000
 -------------------------------------------------------------------
 State  12                      Configuration         Coeff.   <S^2>
 -------------------------------------------------------------------
          111111111_111111 | _________1______      -0.658606  57.000
          1_11111111111111 | _1______________       0.593585  57.000
 -------------------------------------------------------------------
 State  13                      Configuration         Coeff.   <S^2>
 -------------------------------------------------------------------
          11111111111111_1 | ______________1_       0.255901  57.000
          11111111_1111111 | ________1_______      -0.328701  57.000
          1111111_11111111 | _______1________      -0.284629  57.000
          111111_111111111 | ______1_________       0.296179  57.000
          11111_1111111111 | _____1__________       0.359034  57.000
          1111_11111111111 | ____1___________      -0.369151  57.000
          11_1111111111111 | __1_____________      -0.380969  57.000
          _111111111111111 | 1_______________       0.299730  57.000
 -------------------------------------------------------------------
 State  14                      Configuration         Coeff.   <S^2>
 -------------------------------------------------------------------
          1111111111111_11 | _____________1__       0.388247  57.000
          111111111111_111 | ____________1___      -0.408176  57.000
          1111111111_11111 | __________1_____      -0.425217  57.000
          11111111_1111111 | ________1_______       0.226761  57.000
          11111_1111111111 | _____1__________      -0.240306  57.000
          1111_11111111111 | ____1___________       0.220972  57.000
          111_111111111111 | ___1____________       0.436433  57.000
          11_1111111111111 | __1_____________       0.247594  57.000
 -------------------------------------------------------------------
 State  15                      Configuration         Coeff.   <S^2>
 -------------------------------------------------------------------
          111111111111111_ | _______________1      -0.385254  57.000
          11111111111111_1 | ______________1_      -0.286066  57.000
          11111111111_1111 | ___________1____      -0.367341  57.000
          111111111_111111 | _________1______      -0.409868  57.000
          1111111_11111111 | _______1________       0.287451  57.000
          111111_111111111 | ______1_________      -0.292419  57.000
          1_11111111111111 | _1______________      -0.412689  57.000
          _111111111111111 | 1_______________      -0.308894  57.000
 -------------------------------------------------------------------
 State  16                      Configuration         Coeff.   <S^2>
 -------------------------------------------------------------------
          111111111111111_ | _______________1      -0.250000  57.000
          11111111111111_1 | ______________1_       0.250000  57.000
          1111111111111_11 | _____________1__      -0.250000  57.000
          111111111111_111 | ____________1___       0.250000  57.000
          11111111111_1111 | ___________1____      -0.250000  57.000
          1111111111_11111 | __________1_____       0.250000  57.000
          111111111_111111 | _________1______      -0.250000  57.000
          11111111_1111111 | ________1_______       0.250000  57.000
          1111111_11111111 | _______1________      -0.250000  57.000
          111111_111111111 | ______1_________       0.250000  57.000
          11111_1111111111 | _____1__________      -0.250000  57.000
          1111_11111111111 | ____1___________       0.250000  57.000
          111_111111111111 | ___1____________      -0.250000  57.000
          11_1111111111111 | __1_____________       0.250000  57.000
          1_11111111111111 | _1______________      -0.250000  57.000
          _111111111111111 | 1_______________       0.250000  57.000
 -------------------------------------------------------------------
 State  17                      Configuration         Coeff.   <S^2>
 -------------------------------------------------------------------
 -------------------------------------------------------------------
 State  18                      Configuration         Coeff.   <S^2>
 -------------------------------------------------------------------
          1111111111111_11 | ________1_______       0.258819  56.000
          1111111111111_11 | ___________1____       0.254753  56.000
          1111111111111_11 | _______________1      -0.251815  56.000
 -------------------------------------------------------------------
 State  19                      Configuration         Coeff.   <S^2>
 -------------------------------------------------------------------
 -------------------------------------------------------------------
 State  20                      Configuration         Coeff.   <S^2>
 -------------------------------------------------------------------
          _111111111111111 | ______1_________      -0.215580  56.000
          _111111111111111 | _______1________       0.260390  56.000
          _111111111111111 | ______________1_       0.266892  56.000
 -------------------------------------------------------------------
 State  21                      Configuration         Coeff.   <S^2>
 -------------------------------------------------------------------
          111_111111111111 | __________1_____      -0.208857  56.000
          111_111111111111 | ____________1___       0.247488  56.000
          111_111111111111 | _____________1__      -0.308793  56.000
 -------------------------------------------------------------------
 State  22                      Configuration         Coeff.   <S^2>
 -------------------------------------------------------------------
          1111111111111_11 | ____________1___      -0.203630  56.000
          1111111111_11111 | ____________1___      -0.210345  56.000
          1111_11111111111 | ________1_______       0.212068  56.000
          11_1111111111111 | _____1__________       0.236681  56.000
          11_1111111111111 | ________1_______       0.255888  56.000
 -------------------------------------------------------------------
 State  23                      Configuration         Coeff.   <S^2>
 -------------------------------------------------------------------
          11111_1111111111 | ____1___________      -0.228137  56.000
          11111_1111111111 | ________1_______      -0.228801  56.000
 -------------------------------------------------------------------
 State  24                      Configuration         Coeff.   <S^2>
 -------------------------------------------------------------------
          111111111_111111 | _1______________      -0.202741  56.000
          111111111_111111 | ___________1____       0.322960  56.000
          111111111_111111 | _______________1      -0.316209  56.000
          1_11111111111111 | ___________1____       0.303386  56.000
          1_11111111111111 | _______________1      -0.264881  56.000
 -------------------------------------------------------------------
 State  25                      Configuration         Coeff.   <S^2>
 -------------------------------------------------------------------
          11111111_1111111 | _____1__________      -0.207425  56.000
          111111_111111111 | ______________1_      -0.228614  56.000
          _111111111111111 | _______1________      -0.228794  56.000
 -------------------------------------------------------------------
 State  26                      Configuration         Coeff.   <S^2>
 -------------------------------------------------------------------
          11111111111111_1 | _______1________       0.230499  56.000
          1111111111_11111 | _____________1__       0.223435  56.000
          111111_111111111 | 1_______________       0.200510  56.000
          111111_111111111 | _______1________       0.208541  56.000
 -------------------------------------------------------------------
 State  27                      Configuration         Coeff.   <S^2>
 -------------------------------------------------------------------
          111111111111_111 | ___1____________       0.247397  56.000
          111111111111_111 | __________1_____      -0.215829  56.000
          111111111111_111 | _____________1__      -0.253694  56.000
 -------------------------------------------------------------------
 State  28                      Configuration         Coeff.   <S^2>
 -------------------------------------------------------------------
          1111111_11111111 | 1_______________      -0.221649  56.000
          1111111_11111111 | ______1_________       0.262668  56.000
          1111111_11111111 | ______________1_      -0.268890  56.000
 -------------------------------------------------------------------
 State  29                      Configuration         Coeff.   <S^2>
 -------------------------------------------------------------------
          111111111111111_ | _1______________       0.202146  56.000
          111111111111111_ | _________1______      -0.210507  56.000
          111111111111111_ | ___________1____      -0.256674  56.000
 -------------------------------------------------------------------
 State  30                      Configuration         Coeff.   <S^2>
 -------------------------------------------------------------------
          111111111111111_ | _1______________      -0.206839  56.000
          1111111111111_11 | ___________1____       0.206121  56.000
          11111_1111111111 | __1_____________       0.214828  56.000
 -------------------------------------------------------------------
 State  31                      Configuration         Coeff.   <S^2>
 -------------------------------------------------------------------
          1111111_11111111 | 1_______________      -0.207538  56.000
 -------------------------------------------------------------------
 State  32                      Configuration         Coeff.   <S^2>
 -------------------------------------------------------------------
          11111111111_1111 | ________1_______       0.204900  56.000
          11111111111_1111 | _____________1__       0.200847  56.000
 -------------------------------------------------------------------
 State  33                      Configuration         Coeff.   <S^2>
 -------------------------------------------------------------------
          111111111111_111 | _______1________       0.252619  56.000
          111111111111_111 | ______________1_       0.252762  56.000
 -------------------------------------------------------------------
 State  34                      Configuration         Coeff.   <S^2>
 -------------------------------------------------------------------
 -------------------------------------------------------------------
 State  35                      Configuration         Coeff.   <S^2>
 -------------------------------------------------------------------
 -------------------------------------------------------------------
 State  36                      Configuration         Coeff.   <S^2>
 -------------------------------------------------------------------
          11111111_1111111 | _1______________       0.232016  56.000
          11111111_1111111 | _________1______      -0.215725  56.000
          11111111_1111111 | ___________1____      -0.269763  56.000
          11111111_1111111 | _______________1       0.285641  56.000
 -------------------------------------------------------------------
 State  37                      Configuration         Coeff.   <S^2>
 -------------------------------------------------------------------
          111111111111_111 | _______1________      -0.229644  56.000
          111111111111_111 | ______________1_      -0.227058  56.000
 -------------------------------------------------------------------
 State  38                      Configuration         Coeff.   <S^2>
 -------------------------------------------------------------------
 -------------------------------------------------------------------
 State  39                      Configuration         Coeff.   <S^2>
 -------------------------------------------------------------------
          11111_1111111111 | ______________1_      -0.261290  56.000
 -------------------------------------------------------------------
 State  40                      Configuration         Coeff.   <S^2>
 -------------------------------------------------------------------
          1111111_11111111 | ___________1____       0.200200  56.000
          1111111_11111111 | ____________1___       0.206176  56.000
          111111_111111111 | _1______________       0.218632  56.000
          111111_111111111 | _________1______      -0.209655  56.000
          111111_111111111 | ___________1____      -0.303751  56.000
          111111_111111111 | _______________1       0.213435  56.000
 -------------------------------------------------------------------
 State  41                      Configuration         Coeff.   <S^2>
 -------------------------------------------------------------------
          1111111111111_11 | _______1________       0.228639  56.000
          1111111111111_11 | ______________1_       0.217655  56.000
          1111111111_11111 | 1_______________       0.201674  56.000
          1111111111_11111 | ______1_________      -0.206538  56.000
          1111111111_11111 | _______1________       0.289439  56.000
          1111111111_11111 | ______________1_       0.235072  56.000
 -------------------------------------------------------------------
 State  42                      Configuration         Coeff.   <S^2>
 -------------------------------------------------------------------
          111111111111111_ | _____________1__      -0.220523  56.000
 -------------------------------------------------------------------
 State  43                      Configuration         Coeff.   <S^2>
 -------------------------------------------------------------------
          11111111111_1111 | ________1_______       0.205497  56.000
 -------------------------------------------------------------------
 State  44                      Configuration         Coeff.   <S^2>
 -------------------------------------------------------------------
 -------------------------------------------------------------------
 State  45                      Configuration         Coeff.   <S^2>
 -------------------------------------------------------------------
 -------------------------------------------------------------------
 State  46                      Configuration         Coeff.   <S^2>
 -------------------------------------------------------------------
 -------------------------------------------------------------------
 State  47                      Configuration         Coeff.   <S^2>
 -------------------------------------------------------------------
          11111_1111111111 | ______________1_       0.225762  56.000
 -------------------------------------------------------------------
 State  48                      Configuration         Coeff.   <S^2>
 -------------------------------------------------------------------
 -------------------------------------------------------------------
 State  49                      Configuration         Coeff.   <S^2>
 -------------------------------------------------------------------
          1111111_11111111 | ___________1____       0.204894  56.000
 -------------------------------------------------------------------
 State  50                      Configuration         Coeff.   <S^2>
 -------------------------------------------------------------------
          _111111111111111 | ___________1____       0.205292  56.000
 -------------------------------------------------------------------
 State  51                      Configuration         Coeff.   <S^2>
 -------------------------------------------------------------------
          1111111111_11111 | _______1________       0.234130  56.000
          111_111111111111 | 1_______________      -0.248390  56.000
          111_111111111111 | ______1_________       0.253063  56.000
          111_111111111111 | _______1________      -0.288038  56.000
          111_111111111111 | ______________1_      -0.272933  56.000
 -------------------------------------------------------------------
 State  52                      Configuration         Coeff.   <S^2>
 -------------------------------------------------------------------
          1111111111_11111 | ____1___________       0.205075  56.000
          1111111111_11111 | _____1__________       0.214552  56.000
          1111111111_11111 | ________1_______       0.202188  56.000
 -------------------------------------------------------------------
 State  53                      Configuration         Coeff.   <S^2>
 -------------------------------------------------------------------
 -------------------------------------------------------------------
 State  54                      Configuration         Coeff.   <S^2>
 -------------------------------------------------------------------
          1111_11111111111 | ___________1____       0.224765  56.000
[...]
 12649    24835.47787220    62757.78632266       30.00000000      cm-1
 12650    24837.80923864    62760.11768910       20.00000000      cm-1
 12651    24839.72720550    62762.03565596        6.00000000      cm-1
 12652    24847.34160531    62769.65005578       12.00000000      cm-1
 12653    24852.77422101    62775.08267147       20.00000000      cm-1
 12654    24852.90297615    62775.21142662       12.00000000      cm-1
 12655    24862.75439865    62785.06284912       12.00000000      cm-1
 12656    24865.48618586    62787.79463632       20.00000000      cm-1
 12657    24868.19440083    62790.50285130       30.00000000      cm-1
 12658    24872.00915507    62794.31760553       30.00000000      cm-1
 12659    24878.19668567    62800.50513613       20.00000000      cm-1
 12660    24878.55903377    62800.86748423       12.00000000      cm-1
 12661    24879.68756882    62801.99601928       20.00000000      cm-1
 12662    24881.55931155    62803.86776201       12.00000000      cm-1
 12663    24888.65784042    62810.96629088       30.00000000      cm-1
 12664    24903.57585593    62825.88430639       30.00000000      cm-1
 12665    24904.45641949    62826.76486996       12.00000000      cm-1
 12666    24914.05047818    62836.35892864       42.00000000      cm-1
 12667    24920.98122285    62843.28967332       20.00000000      cm-1
 12668    24921.99440469    62844.30285516       30.00000000      cm-1
 12669    24923.71551694    62846.02396741       20.00000000      cm-1
 12670    24944.41538968    62866.72384015       12.00000000      cm-1
 12671    24944.90339321    62867.21184368       30.00000000      cm-1
 12672    24950.71419474    62873.02264521       20.00000000      cm-1
 12673    24958.99914326    62881.30759373       12.00000000      cm-1
 12674    24960.92223907    62883.23068953       20.00000000      cm-1
 12675    24968.03048744    62890.33893790       30.00000000      cm-1
 12676    24968.83278242    62891.14123288       42.00000000      cm-1
 12677    24986.17163167    62908.48008214       12.00000000      cm-1
 12678    24999.01244316    62921.32089362       30.00000000      cm-1
 12679    25007.60100981    62929.90946027       12.00000000      cm-1
 12680    25010.96683773    62933.27528820       20.00000000      cm-1
 12681    25013.62646163    62935.93491210       12.00000000      cm-1
 12682    25016.91712003    62939.22557050       30.00000000      cm-1
 12683    25025.86508216    62948.17353263       20.00000000      cm-1
 12684    25028.58455412    62950.89300459       30.00000000      cm-1
 12685    25030.96182841    62953.27027888       30.00000000      cm-1
 12686    25041.21894165    62963.52739212       20.00000000      cm-1
 12687    25057.76649502    62980.07494548       20.00000000      cm-1
 12688    25063.91906610    62986.22751657       20.00000000      cm-1
 12689    25065.05336185    62987.36181231       30.00000000      cm-1
 12690    25075.96846022    62998.27691068       12.00000000      cm-1
 12691    25078.77246598    63001.08091644       30.00000000      cm-1
 12692    25083.67722115    63005.98567161       20.00000000      cm-1
 12693    25090.86310578    63013.17155624       30.00000000      cm-1
 12694    25106.49502865    63028.80347911       20.00000000      cm-1
 12695    25114.03801228    63036.34646274       42.00000000      cm-1
 12696    25114.96700963    63037.27546009       30.00000000      cm-1
 12697    25126.42844380    63048.73689426       30.00000000      cm-1
 12698    25126.54599227    63048.85444273       20.00000000      cm-1
 12699    25129.03155587    63051.34000634       12.00000000      cm-1
 12700    25136.27089811    63058.57934858       20.00000000      cm-1
 12701    25138.59403889    63060.90248936       20.00000000      cm-1
 12702    25142.67865464    63064.98710510       30.00000000      cm-1
 12703    25147.75791925    63070.06636972       42.00000000      cm-1
 12704    25152.94501295    63075.25346342       30.00000000      cm-1
 12705    25162.56465565    63084.87310612       20.00000000      cm-1
 12706    25163.04390940    63085.35235987       30.00000000      cm-1
 12707    25176.32507121    63098.63352167       12.00000000      cm-1
 12708    25177.06273684    63099.37118730       30.00000000      cm-1
 12709    25186.12215265    63108.43060311       20.00000000      cm-1
 12710    25188.02314953    63110.33159999       30.00000000      cm-1
 12711    25191.42019268    63113.72864314       30.00000000      cm-1
 12712    25195.94642325    63118.25487371       42.00000000      cm-1
 12713    25199.93446356    63122.24291403       20.00000000      cm-1
 12714    25206.84791247    63129.15636294       20.00000000      cm-1
 12715    25206.92133809    63129.22978855       30.00000000      cm-1
 12716    25225.88581109    63148.19426156       56.00000000      cm-1
 12717    25226.59547305    63148.90392352       20.00000000      cm-1
 12718    25235.18226438    63157.49071485       30.00000000      cm-1
 12719    25238.55287294    63160.86132340       42.00000000      cm-1
 12720    25248.49013888    63170.79858934       30.00000000      cm-1
 12721    25251.18844824    63173.49689871       42.00000000      cm-1
 12722    25253.42776020    63175.73621066       20.00000000      cm-1
 12723    25256.15083463    63178.45928509       30.00000000      cm-1
 12724    25257.61118602    63179.91963648       30.00000000      cm-1
 12725    25280.09942621    63202.40787667       30.00000000      cm-1
 12726    25289.72570751    63212.03415797       20.00000000      cm-1
 12727    25292.54557357    63214.85402404       42.00000000      cm-1
 12728    25297.47551789    63219.78396835       20.00000000      cm-1
 12729    25299.72902497    63222.03747544       30.00000000      cm-1
 12730    25307.35667284    63229.66512331       30.00000000      cm-1
 12731    25336.90023791    63259.20868837       42.00000000      cm-1
 12732    25344.56211170    63266.87056217       20.00000000      cm-1
 12733    25356.47639474    63278.78484521       30.00000000      cm-1
 12734    25386.29954128    63308.60799174       30.00000000      cm-1
 12735    25390.82155547    63313.13000593       42.00000000      cm-1
 12736    25393.30259468    63315.61104514       30.00000000      cm-1
 12737    25415.40341680    63337.71186727       42.00000000      cm-1
 12738    25429.42634477    63351.73479524       30.00000000      cm-1
 12739    25452.88617573    63375.19462620       56.00000000      cm-1
 12740    25454.00982571    63376.31827617       30.00000000      cm-1
 12741    25465.19961655    63387.50806702       42.00000000      cm-1
 12742    25475.36055644    63397.66900690       30.00000000      cm-1
 12743    25482.67180719    63404.98025766       42.00000000      cm-1
 12744    25494.61683089    63416.92528135       30.00000000      cm-1
 12745    25499.24131069    63421.54976115       42.00000000      cm-1
 12746    25522.80703262    63445.11548309       30.00000000      cm-1
 12747    25546.85103395    63469.15948441       20.00000000      cm-1
 12748    25563.00126637    63485.30971683       42.00000000      cm-1
 12749    25567.52231564    63489.83076611       30.00000000      cm-1
 12750    25595.06492587    63517.37337634       42.00000000      cm-1
 12751    25597.76035248    63520.06880294       20.00000000      cm-1
 12752    25600.13443300    63522.44288347       30.00000000      cm-1
 12753    25610.01054451    63532.31899498       30.00000000      cm-1
 12754    25626.98442486    63549.29287532       42.00000000      cm-1
 12755    25636.41400316    63558.72245363       30.00000000      cm-1
 12756    25657.37440739    63579.68285785       42.00000000      cm-1
 12757    25660.86780689    63583.17625735       30.00000000      cm-1
 12758    25670.68490851    63592.99335897       42.00000000      cm-1
 12759    25685.40909484    63607.71754530       42.00000000      cm-1
 12760    25705.04984803    63627.35829850       56.00000000      cm-1
 12761    25710.49651791    63632.80496837       42.00000000      cm-1
 12762    25713.36976736    63635.67821782       42.00000000      cm-1
 12763    25727.97199824    63650.28044871       30.00000000      cm-1
 12764    25756.58788495    63678.89633541       42.00000000      cm-1
 12765    25778.16867940    63700.47712986       42.00000000      cm-1
 12766    25785.21867359    63707.52712405       42.00000000      cm-1
 12767    25810.01552005    63732.32397052       42.00000000      cm-1
 12768    25815.32273810    63737.63118857       42.00000000      cm-1
 12769    25835.64438078    63757.95283124       42.00000000      cm-1
 12770    25887.01726248    63809.32571295       42.00000000      cm-1
 12771    25926.49085442    63848.79930488       42.00000000      cm-1
 12772    25939.95694952    63862.26539999       42.00000000      cm-1
 12773    25956.39061694    63878.69906740       42.00000000      cm-1
 12774    26005.68099745    63927.98944792       56.00000000      cm-1
 12775    26027.20031265    63949.50876312       56.00000000      cm-1
 12776    26097.14256355    64019.45101401       30.00000000      cm-1
 12777    26141.74346535    64064.05191581       42.00000000      cm-1
 12778    26158.51082204    64080.81927251       56.00000000      cm-1
 12779    26239.83946902    64162.14791949       56.00000000      cm-1
 12780    26334.54370876    64256.85215922       56.00000000      cm-1
 12781    26341.92617538    64264.23462584       56.00000000      cm-1
 12782    26391.34868102    64313.65713149       56.00000000      cm-1
 12783    26406.77594025    64329.08439071       56.00000000      cm-1
 12784    26461.70866061    64384.01711108       56.00000000      cm-1
 12785    35504.07994292    73426.38839339       -0.00000000      cm-1
 12786    35597.47371792    73519.78216838        2.00000000      cm-1
 12787    35668.81353477    73591.12198523        2.00000000      cm-1
 12788    35716.46496604    73638.77341651        0.00000000      cm-1
 12789    35756.18841313    73678.49686359        2.00000000      cm-1
 12790    35783.89791448    73706.20636494        6.00000000      cm-1
 12791    35805.28376775    73727.59221822        2.00000000      cm-1
 12792    35842.39969872    73764.70814918        0.00000000      cm-1
 12793    35848.01740423    73770.32585470        2.00000000      cm-1
 12794    35849.39316518    73771.70161565        6.00000000      cm-1
 12795    35907.02904307    73829.33749354        2.00000000      cm-1
 12796    35907.68225362    73829.99070408        6.00000000      cm-1
 12797    35911.06166221    73833.37011267       -0.00000000      cm-1
 12798    35931.60701644    73853.91546690        2.00000000      cm-1
 12799    35937.65930457    73859.96775504        6.00000000      cm-1
 12800    35960.47429048    73882.78274095       -0.00000000      cm-1
 12801    35961.44063751    73883.74908798        2.00000000      cm-1
 12802    35983.80463760    73906.11308807        6.00000000      cm-1
 12803    35995.12800329    73917.43645376        2.00000000      cm-1
 12804    36007.38396971    73929.69242017        2.00000000      cm-1
 12805    36023.70566140    73946.01411187        6.00000000      cm-1
 12806    36038.72548854    73961.03393900        2.00000000      cm-1
 12807    36048.07743892    73970.38588939        2.00000000      cm-1
 12808    36055.23602314    73977.54447361        6.00000000      cm-1
 12809    36062.78615869    73985.09460915       12.00000000      cm-1
 12810    36063.96087580    73986.26932626        6.00000000      cm-1
 12811    36088.00553012    74010.31398058        6.00000000      cm-1
 12812    36111.07580876    74033.38425922        6.00000000      cm-1
 12813    36118.54606683    74040.85451730       12.00000000      cm-1
 12814    36135.73619377    74058.04464423        6.00000000      cm-1
 12815    36161.47748779    74083.78593826        6.00000000      cm-1
 12816    36170.21709288    74092.52554334        6.00000000      cm-1
 12817    36174.38621195    74096.69466242       12.00000000      cm-1
 12818    36183.03496223    74105.34341270        6.00000000      cm-1
 12819    36209.62674518    74131.93519565        6.00000000      cm-1
 12820    36212.20311192    74134.51156238       12.00000000      cm-1
 12821    36220.71433730    74143.02278777       12.00000000      cm-1
 12822    36223.50825482    74145.81670528        6.00000000      cm-1
 12823    36253.11037262    74175.41882309       12.00000000      cm-1
 12824    36287.21283273    74209.52128320       12.00000000      cm-1
 12825    36321.27588916    74243.58433963       12.00000000      cm-1
 12826    36327.13311233    74249.44156280       12.00000000      cm-1
 12827    36359.40127517    74281.70972563       12.00000000      cm-1
 12828    36364.46131942    74286.76976988       12.00000000      cm-1
 12829    36397.97709078    74320.28554124       12.00000000      cm-1
 12830    36406.07241197    74328.38086243       12.00000000      cm-1
 12831    36426.08878671    74348.39723718       12.00000000      cm-1
 12832    36433.70835318    74356.01680365       20.00000000      cm-1
 12833    36438.33833490    74360.64678536       12.00000000      cm-1
 12834    36469.01388801    74391.32233848       12.00000000      cm-1
 12835    36473.86072265    74396.16917312       20.00000000      cm-1
 12836    36484.94963962    74407.25809009       12.00000000      cm-1
 12837    36526.92265811    74449.23110858       20.00000000      cm-1
 12838    36575.92871193    74498.23716239       20.00000000      cm-1
 12839    36583.00216501    74505.31061548       20.00000000      cm-1
 12840    36600.97165403    74523.28010449       20.00000000      cm-1
 12841    36633.11290933    74555.42135979       20.00000000      cm-1
 12842    36671.62988784    74593.93833830       20.00000000      cm-1
 12843    36683.13452706    74605.44297753       20.00000000      cm-1
 12844    36712.15258455    74634.46103502       20.00000000      cm-1
 12845    36735.61764331    74657.92609377       20.00000000      cm-1
 12846    36757.42618829    74679.73463876       20.00000000      cm-1
 12847    36782.14444621    74704.45289667       20.00000000      cm-1
 12848    36813.15359127    74735.46204174       20.00000000      cm-1
 12849    36828.58942523    74750.89787570       20.00000000      cm-1
 12850    36909.26272519    74831.57117566       30.00000000      cm-1
 12851    36962.68759802    74884.99604848       30.00000000      cm-1
 12852    37014.88058286    74937.18903333       30.00000000      cm-1
 12853    37047.66354520    74969.97199566       30.00000000      cm-1
 12854    37054.04766331    74976.35611378       30.00000000      cm-1
 12855    37109.38966118    75031.69811164       30.00000000      cm-1
 12856    37149.76120441    75072.06965487       30.00000000      cm-1
 12857    37162.42065444    75084.72910490       30.00000000      cm-1
 12858    37217.21321157    75139.52166203       30.00000000      cm-1
 12859    37250.89083204    75173.19928250       30.00000000      cm-1
 12860    37476.68376031    75398.99221077       42.00000000      cm-1
 12861    37533.49200824    75455.80045870       42.00000000      cm-1
 12862    37574.66182617    75496.97027664       42.00000000      cm-1
 12863    37619.11704968    75541.42550014       42.00000000      cm-1
 12864    37672.22186434    75594.53031481       42.00000000      cm-1
 12865    37733.40140868    75655.70985914       42.00000000      cm-1
 12866    38126.20530783    76048.51375829       56.00000000      cm-1
 12867    38176.74651142    76099.05496189       56.00000000      cm-1
 12868    38267.45636562    76189.76481608       56.00000000      cm-1
 12869    38847.43316245    76769.74161291       72.00000000      cm-1
 Analysis of SCF Wavefunction

 --------------------------------------------------------------

                    Orbital Energies (a.u.)
 --------------------------------------------------------------

 Alpha MOs
 -- Occupied --
 -0.914  -0.914  -0.515  -0.515  -0.518  -0.519  -0.520  -0.516
 -0.517  -0.515  -0.515  -0.516  -0.518  -0.517  -0.516  -0.517
 -0.520  -0.522
 -- Virtual --
  0.836   1.117   1.016   1.022   1.011   1.009   1.243   0.921
  1.040   1.039   1.160   0.883   1.013   1.060   1.104   1.051
  0.983   0.977

 Beta MOs
 -- Occupied --
 -0.914  -0.914
 -- Virtual --
  0.148   0.148   0.149   0.147   0.150   0.147   0.147   0.149
  0.148   0.147   0.151   0.149   0.150   0.150   0.151   0.149
  1.024   1.266   1.178   1.181   1.171   1.177   1.313   1.092
  1.181   1.205   1.259   1.060   1.175   1.228   1.219   1.203
  1.152   1.148
 --------------------------------------------------------------

          Ground-State Mulliken Net Atomic Charges

     Atom                 Charge (a.u.)
  ----------------------------------------
      1 H                    -0.000020
      2 H                     0.000010
      3 H                    -0.000081
      4 H                     0.000097
      5 H                    -0.000077
      6 H                     0.000118
      7 H                    -0.000020
      8 H                    -0.000048
      9 H                     0.000109
     10 H                     0.000010
     11 H                    -0.000059
     12 H                    -0.000057
     13 H                    -0.000065
     14 H                     0.000124
     15 H                     0.000016
     16 H                    -0.000056
     17 He                   -0.000000
     18 He                   -0.000000
  ----------------------------------------
  Sum of atomic charges =    -0.000000

 -----------------------------------------------------------------
                    Cartesian Multipole Moments
 -----------------------------------------------------------------
    Charge (ESU x 10^10)
                -0.0000
    Dipole Moment (Debye)
         X      -0.0003      Y       0.0005      Z       0.0011
       Tot       0.0012
    Quadrupole Moments (Debye-Ang)
        XX     -25.5319     XY       0.0193     YY     -25.5868
        XZ      -0.0057     YZ      -0.0134     ZZ     -25.5348
    Octopole Moments (Debye-Ang^2)
       XXX     -25.0693    XXY     -37.1419    XYY      -6.5345
       YYY    -114.0924    XXZ      -6.9306    XYZ      -0.0224
       YYZ      -6.7964    XZZ      -5.3604    YZZ     -37.7344
       ZZZ     -19.6350
    Hexadecapole Moments (Debye-Ang^3)
      XXXX   -1667.7881   XXXY     -12.9996   XXYY    -560.4499
      XYYY     -11.5122   YYYY   -1684.1113   XXXZ      18.6742
      XXYZ    -197.8503   XYYZ       4.7033   YYYZ    -602.8131
      XXZZ    -542.8070   XYZZ      -3.2765   YYZZ    -561.0803
      XZZZ      15.6890   YZZZ    -592.0300   ZZZZ   -1631.2412
 -----------------------------------------------------------------
 JobOver = TRUE
Archival summary:
1\1\sinatra\SP\ROProcedureUnspecified\6-31G*\e216(\nmayhall\MonMar2018:50:492017MonMar2018:50:492017\0\\#,ROProcedureUnspecified,6-31G*,\\0,17\H\H,1,1.80987\H,1,1.81009,2,60.0846\H,1,1.81076,2,60.0431,3,-70.5554,0\H,1,2.63307,2,110.31,3,-151.7,0\H,5,1.81131,1,139.459,2,147.862,0\H,6,1.81065,5,60.0237,1,-0.959826,0\H,7,1.81086,6,60.0452,5,-70.5123,0\H,7,2.6459,6,127.132,5,-99.3643,0\H,9,1.81039,7,161.062,6,-128.385,0\H,9,1.81121,7,114.496,6,162.928,0\H,11,1.8112,9,60.0005,7,89.002,0\H,1,2.68667,2,158.004,3,107.309,0\H,13,1.8111,1,87.8509,2,-80.3099,0\H,14,1.8108,13,60.0291,1,-71.0844,0\H,13,1.81133,1,131.287,2,-126.04,0\He,6,14.6354,5,144.227,1,-112.292,0\He,6,14.8639,5,120.837,1,115.817,0\\HF=-13.3828141\\@

 Total job time:  589.79s(wall), 589.72s(cpu) 
 Mon Mar 20 18:50:49 2017

        *************************************************************
        *                                                           *
        *  Thank you very much for using Q-Chem.  Have a nice day.  *
        *                                                           *
        *************************************************************


*** MISSION COMPLETED -- STARFLEET OUT ***

