                  Welcome to Q-Chem
     A Quantum Leap Into The Future Of Chemistry


 Q-Chem 4.3, Q-Chem, Inc., Pleasanton, CA (2015)

 Y. Shao,  Z. Gan,  E. Epifanovsky,  A. T. B. Gilbert,  M. Wormit,  
 J. Kussmann,  A. W. Lange,  A. Behn,  J. Deng,  X. Feng,  D. Ghosh,  
 M. Goldey,  P. R. Horn,  L. D. Jacobson,  I. Kaliman,  R. Z. Khaliullin,  
 T. Kus,  A. Landau,  J. Liu,  E. I. Proynov,  Y. M. Rhee,  R. M. Richard,  
 M. A. Rohrdanz,  R. P. Steele,  E. J. Sundstrom,  H. L. Woodcock III,  
 P. M. Zimmerman,  D. Zuev,  B. Albrecht,  E. Alguire,  B. Austin,  
 S. A. Baeppler,  G. J. O. Beran,  Y. A. Bernard,  E. Berquist,  
 K. Brandhorst,  K. B. Bravaya,  S. T. Brown,  D. Casanova,  C.-M. Chang,  
 Y. Chen,  S. H. Chien,  K. D. Closser,  D. L. Crittenden,  M. Diedenhofen,  
 R. A. DiStasio Jr.,  H. Do,  A. D. Dutoi,  R. G. Edgar,  P.-T. Fang,  
 S. Fatehi,  Q. Feng,  L. Fusti-Molnar,  A. Ghysels,  
 A. Golubeva-Zadorozhnaya,  J. Gomes,  A. Gunina,  M. W. D. Hanson-Heine,  
 P. H. P. Harbach,  A. W. Hauser,  E. G. Hohenstein,  Z. C. Holden,  K. Hui,  
 T.-C. Jagau,  H. Ji,  B. Kaduk,  K. Khistyaev,  Jaehoon Kim,  Jihan Kim,  
 R. A. King,  P. Klunzinger,  D. Kosenkov,  T. Kowalczyk,  C. M. Krauter,  
 K. U. Lao,  A. Laurent,  K. V. Lawler,  S. Lehtola,  S. V. Levchenko,  
 C. Y. Lin,  Y.-S. Lin,  F. Liu,  E. Livshits,  R. C. Lochan,  A. Luenser,  
 P. Manohar,  S. F. Manzer,  S.-P. Mao,  N. Mardirossian,  A. V. Marenich,  
 L. A. Martinez-Martinez,  S. A. Maurer,  N. J. Mayhall,  K. Nanda,  
 C. M. Oana,  R. Olivares-Amaya,  D. P. O'Neill,  J. A. Parkhill,  
 T. M. Perrine,  R. Peverati,  P. A. Pieniazek,  F. Plasser,  A. Prociuk,  
 D. R. Rehn,  E. Rosta,  N. J. Russ,  N. Sergueev,  S. M. Sharada,  
 S. Sharma,  D. W. Small,  A. Sodt,  T. Stauch,  T. Stein,  D. Stuck,  
 Y.-C. Su,  A. J. W. Thom,  T. Tsuchimochi,  L. Vogt,  O. Vydrov,  T. Wang,  
 M. A. Watson,  J. Wenzel,  A. White,  C. F. Williams,  V. Vanovschi,  
 S. Yeganeh,  S. R. Yost,  Z.-Q. You,  I. Y. Zhang,  X. Zhang,  Y. Zhao,  
 B. R. Brooks,  G. K. L. Chan,  D. M. Chipman,  C. J. Cramer,  
 W. A. Goddard III,  M. S. Gordon,  W. J. Hehre,  A. Klamt,  
 H. F. Schaefer III,  M. W. Schmidt,  C. D. Sherrill,  D. G. Truhlar,  
 A. Warshel,  X. Xu,  A. Aspuru-Guzik,  R. Baer,  A. T. Bell,  N. A. Besley,  
 J.-D. Chai,  A. Dreuw,  B. D. Dunietz,  T. R. Furlani,  S. R. Gwaltney,  
 C.-P. Hsu,  Y. Jung,  J. Kong,  D. S. Lambrecht,  W. Liang,  C. Ochsenfeld,  
 V. A. Rassolov,  L. V. Slipchenko,  J. E. Subotnik,  T. Van Voorhis,  
 J. M. Herbert,  A. I. Krylov,  P. M. W. Gill,  M. Head-Gordon

 Contributors to earlier versions of Q-Chem not listed above: 
 R. D. Adamson,  J. Baker,  E. F. C. Byrd,  A. K. Chakraborty,  C.-L. Cheng,  
 H. Dachsel,  R. J. Doerksen,  G. Hawkins,  A. Heyden,  S. Hirata,  
 G. Kedziora,  F. J. Keil,  C. Kelley,  P. P. Korambath,  W. Kurlancheek,  
 A. M. Lee,  M. S. Lee,  D. Liotard,  I. Lotan,  P. E. Maslen,  N. Nair,  
 D. Neuhauser,  R. Olson,  B. Peters,  J. Ritchie,  N. E. Schultz,  
 N. Shenvi,  A. C. Simmonett,  K. S. Thanthiriwatte,  Q. Wu,  W. Zhang

 Please cite Q-Chem as follows:
 Y. Shao et al., Mol. Phys. 113, 184-215 (2015)
 DOI: 10.1080/00268976.2014.952696

 Q-Chem 4.3.0 for Intel X86 EM64T Linux

 Parts of Q-Chem use Armadillo 5.200.1 (Boston Tea Smuggler).
 http://arma.sourceforge.net/

 Q-Chem begins on Wed May 24 13:42:42 2017  


Host: 0

     Scratch files written to /home/nmayhall/scratch_qchem/qchem22027//
 Dec1416 |home|nmayhall|qcSoftware|qchem|qchem.svn-casman|libmdc|qstr_RNUM -1
 Using version located at /home/nmayhall/qcSoftware/qchem/qchem.svn-casman/bin/qchem


Total Memory Limit in MB = 2000
Mega-Array Size in MB = 62

Checking the input file for inconsistencies... 	...done.

 Q-Chem warning in module /home/nmayhall/qcSoftware/qchem/qchem.svn-casman/forms1/BasisType.C, line 1452:

 You are not using the predefined 5D/6D in this basis set.

Finally everything over in PARseQInput

--------------------------------------------------------------
User input:
--------------------------------------------------------------
$rem
	exchange 		hf
	unrestricted		1
	basis			6-31g	
	aux_basis		rimp2-vdz
	scf_guess		core	
	scf_convergence		8
	purecart		1111

	symmetry		0
	sym_ignore		1

	!correlation		sf-cas
	!cas_n_spin_flip		1
	!cas_local		1
	gui			2
$end

$development
	1sf_heis_projection	1
$end

$molecule
0 17
h         -2.51896       -2.61915        2.09844
h          0.78212        0.78287        1.51341
h         -2.20246       -0.09369        0.52564
h          2.54334       -1.43420        0.97807
h         -0.13444       -3.39674        0.67508
h          0.49385       -1.77947        3.03101
h          0.29136       -0.91388       -0.76621
h         -2.53309       -2.68480       -0.78243
H         -2.35183       -3.46898       -0.16598
H         -0.62393       -1.29443       -0.97984
H         -2.94545       -0.77240        0.64901
H          2.36223       -0.65020        0.36134
H          1.20700       -1.06179        2.96599
H         -1.61000       -2.66422        2.54522
H          0.78074       -3.01605        0.88891
H         -0.09799        0.79024        1.01021
He	10	10	10	
He	-10	10	10	
$end


--------------------------------------------------------------
 ----------------------------------------------------------------
             Standard Nuclear Orientation (Angstroms)
    I     Atom           X                Y                Z
 ----------------------------------------------------------------
    1      H      -2.5189600000    -2.6191500000     2.0984400000
    2      H       0.7821200000     0.7828700000     1.5134100000
    3      H      -2.2024600000    -0.0936900000     0.5256400000
    4      H       2.5433400000    -1.4342000000     0.9780700000
    5      H      -0.1344400000    -3.3967400000     0.6750800000
    6      H       0.4938500000    -1.7794700000     3.0310100000
    7      H       0.2913600000    -0.9138800000    -0.7662100000
    8      H      -2.5330900000    -2.6848000000    -0.7824300000
    9      H      -2.3518300000    -3.4689800000    -0.1659800000
   10      H      -0.6239300000    -1.2944300000    -0.9798400000
   11      H      -2.9454500000    -0.7724000000     0.6490100000
   12      H       2.3622300000    -0.6502000000     0.3613400000
   13      H       1.2070000000    -1.0617900000     2.9659900000
   14      H      -1.6100000000    -2.6642200000     2.5452200000
   15      H       0.7807400000    -3.0160500000     0.8889100000
   16      H      -0.0979900000     0.7902400000     1.0102100000
   17      He     10.0000000000    10.0000000000    10.0000000000
   18      He    -10.0000000000    10.0000000000    10.0000000000
 ----------------------------------------------------------------
 Nuclear Repulsion Energy =    23.5569904987 hartrees
 There are       18 alpha and        2 beta electrons
 Requested basis set is 6-31G
 There are 36 shells and 36 basis functions

Total QAlloc Memory Limit   2000 MB
Mega-Array Size        61 MB
MEM_STATIC part        62 MB

finished with qalloc call

 Q-Chem warning in module /home/nmayhall/qcSoftware/qchem/qchem.svn-casman/forms1/BasisType.C, line 1375:

 SAD: How to set up polarization functions for non-Pople basis?

 Requested basis set is rimp2-VDZ
 There are 106 shells and 242 basis functions
 Job number = 2, Threshold = 1.00E-11
Integral type ranges set in mkLRange.C for JobNum: 2  <1-7|1-7>
Symmetry turned off temporarily
 Using the largest function pair in Schwarz integrals
Total number of integrals generated =            1466
Symmetry turned back on
 A cutoff of  1.0D-11 yielded    512 shell pairs
 There are       512 function pairs
 Job number = 11, Threshold = 1.00E-11
Integral type ranges set in mkLRange.C for JobNum: 11  <1-1|8-8>

 -------------------------------------------------------
 OpenMP Integral Computing Module                       
 Release: version 1.0, May 2013, Q-Chem Inc. Pittsburgh 
 -------------------------------------------------------
 Integral Job Info:
 Integral job number is                      11
 Integral operator is                         1
 short-range coefficients                     0
 long-range coefficients              100000000
 Omega coefficients                           0
 if combine SR and LR in K                    0
 Integral screening is                        0
 Integral computing path is                   2
 max size of driver memory is            800000
 size of driver memory is                 11780
 size of scratch memory is               800000
 max col of scratch BK array                289
 max len of scratch array in speh3            1
 max len of scratch index in speh4            2
 max int batch size is                      520
 min int batch size is                       52
 fixed nKL is                               520
 max L of basis functions is                  0
 order of int derivative is                   0
 number of shells is                         36
 number of basis is                          36
 number of cartesian basis is                36
 number of contracted shell pairs           512
 number of primitive shell pairs           1440
 maxK2 (contraction) of shell pair            9
 max number of K2 of shell pair               1
 max number of CS2 of shell pair            276
 max number of PS2 of shell pair            828
 mem total for path MDJ                    8328
 -------------------------------------------------------
 Smallest overlap matrix eigenvalue = 6.38E-02
 Multipole matrices computed through 2nd order

  Scale SEOQF with 1.000000e-02/1.000000e-02/1.000000e-02

 Standard Electronic Orientation quadrupole field applied
 Nucleus-field energy     =     0.0000000002 hartrees
GuessMan:  IGuess = 1
 Guess MOs from core Hamiltonian diagonalization
scfman initvdwdat 
 An unrestricted Hartree-Fock SCF calculation will be
 performed using Pulay DIIS extrapolation
 SCF converges when DIIS error is below 1.0E-08
Finding J and K together
 Job number = 22, Threshold = 1.00E-11
Integral type ranges set in mkLRange.C for JobNum: 22  <1-1|1-1>
Storing 1384.46% of integrals
Total number of integrals generated =          125342
 MakeJK  time:  CPU       0.04 s  wall       0.04 s
Fock build time:  0.04 s (CPU) 0.04 s (wall)
DIIS Errors:  Max 3.56E-01 RMS 3.55E-02

Current DIIS subspace size = 1
REM_GRID_RESTART_DIIS = 0

 ---------------------------------------
  Cycle       Energy         DIIS Error
 ---------------------------------------
    1      -7.3349827708      3.55E-02  00000
Finding J and K together
 Job number = 22, Threshold = 1.00E-11
Integral type ranges set in mkLRange.C for JobNum: 22  <1-1|1-1>
Storing 1384.46% of integrals
Reusing in-core integrals buffer for job 22
 MakeJK  time:  CPU       0.01 s  wall       0.01 s
Fock build time:  0.01 s (CPU) 0.01 s (wall)
DIIS Errors:  Max 4.99E-01 RMS 2.41E-02

Current DIIS subspace size = 2
REM_GRID_RESTART_DIIS = 0

    2     -10.7363909759      2.41E-02  00000
Finding J and K together
 Job number = 22, Threshold = 1.00E-11
Integral type ranges set in mkLRange.C for JobNum: 22  <1-1|1-1>
Storing 1384.46% of integrals
Reusing in-core integrals buffer for job 22
 MakeJK  time:  CPU       0.01 s  wall       0.01 s
Fock build time:  0.01 s (CPU) 0.01 s (wall)
DIIS Errors:  Max 1.10E-01 RMS 6.99E-03

Current DIIS subspace size = 3
REM_GRID_RESTART_DIIS = 0

    3     -12.5601597939      6.99E-03  00000
Finding J and K together
 Job number = 22, Threshold = 1.00E-11
Integral type ranges set in mkLRange.C for JobNum: 22  <1-1|1-1>
Storing 1384.46% of integrals
Reusing in-core integrals buffer for job 22
 MakeJK  time:  CPU       0.00 s  wall       0.01 s
Fock build time:  0.00 s (CPU) 0.01 s (wall)
DIIS Errors:  Max 8.55E-02 RMS 3.78E-03

Current DIIS subspace size = 4
REM_GRID_RESTART_DIIS = 0

    4     -12.5834066185      3.78E-03  00000
Finding J and K together
 Job number = 22, Threshold = 1.00E-11
Integral type ranges set in mkLRange.C for JobNum: 22  <1-1|1-1>
Storing 1384.46% of integrals
Reusing in-core integrals buffer for job 22
 MakeJK  time:  CPU       0.01 s  wall       0.01 s
Fock build time:  0.01 s (CPU) 0.01 s (wall)
DIIS Errors:  Max 4.88E-02 RMS 1.98E-03

Current DIIS subspace size = 5
REM_GRID_RESTART_DIIS = 0

    5     -12.5883014004      1.98E-03  00000
Finding J and K together
 Job number = 22, Threshold = 1.00E-11
Integral type ranges set in mkLRange.C for JobNum: 22  <1-1|1-1>
Storing 1384.46% of integrals
Reusing in-core integrals buffer for job 22
 MakeJK  time:  CPU       0.01 s  wall       0.01 s
Fock build time:  0.01 s (CPU) 0.01 s (wall)
DIIS Errors:  Max 4.49E-03 RMS 1.85E-04

Current DIIS subspace size = 6
REM_GRID_RESTART_DIIS = 0

    6     -12.5893648176      1.85E-04  00000
Finding J and K together
 Job number = 22, Threshold = 1.00E-11
Integral type ranges set in mkLRange.C for JobNum: 22  <1-1|1-1>
Storing 1384.46% of integrals
Reusing in-core integrals buffer for job 22
 MakeJK  time:  CPU       0.01 s  wall       0.01 s
Fock build time:  0.01 s (CPU) 0.01 s (wall)
DIIS Errors:  Max 1.29E-04 RMS 6.09E-06

Current DIIS subspace size = 7
REM_GRID_RESTART_DIIS = 0

    7     -12.5893759795      6.09E-06  00000
Finding J and K together
 Job number = 22, Threshold = 1.00E-11
Integral type ranges set in mkLRange.C for JobNum: 22  <1-1|1-1>
Storing 1384.46% of integrals
Reusing in-core integrals buffer for job 22
 MakeJK  time:  CPU       0.01 s  wall       0.01 s
Fock build time:  0.01 s (CPU) 0.01 s (wall)
DIIS Errors:  Max 6.80E-06 RMS 5.38E-07

Current DIIS subspace size = 8
REM_GRID_RESTART_DIIS = 0

    8     -12.5893766822      5.38E-07  00000
Finding J and K together
 Job number = 22, Threshold = 1.00E-11
Integral type ranges set in mkLRange.C for JobNum: 22  <1-1|1-1>
Storing 1384.46% of integrals
Reusing in-core integrals buffer for job 22
 MakeJK  time:  CPU       0.01 s  wall       0.01 s
Fock build time:  0.01 s (CPU) 0.01 s (wall)
DIIS Errors:  Max 1.57E-06 RMS 1.06E-07

Current DIIS subspace size = 9
REM_GRID_RESTART_DIIS = 0

    9     -12.5893767477      1.06E-07  00000
Finding J and K together
 Job number = 22, Threshold = 1.00E-11
Integral type ranges set in mkLRange.C for JobNum: 22  <1-1|1-1>
Storing 1384.46% of integrals
Reusing in-core integrals buffer for job 22
 MakeJK  time:  CPU       0.01 s  wall       0.01 s
Fock build time:  0.01 s (CPU) 0.01 s (wall)
DIIS Errors:  Max 1.56E-07 RMS 1.16E-08

Current DIIS subspace size = 10
REM_GRID_RESTART_DIIS = 0

   10     -12.5893767505      1.16E-08  00000
Finding J and K together
 Job number = 22, Threshold = 1.00E-11
Integral type ranges set in mkLRange.C for JobNum: 22  <1-1|1-1>
Storing 1384.46% of integrals
Reusing in-core integrals buffer for job 22
 MakeJK  time:  CPU       0.01 s  wall       0.01 s
Fock build time:  0.01 s (CPU) 0.01 s (wall)
DIIS Errors:  Max 6.51E-09 RMS 4.17E-10

Current DIIS subspace size = 11
REM_GRID_RESTART_DIIS = 0

   11     -12.5893767509      4.17E-10  00000 Convergence criterion met
 ---------------------------------------
 <S^2> = 72.0000
 SCF time:  CPU 0.12 s  wall 0.12 s
 SCF   energy in the final basis set = -12.5893767509
 Total energy in the final basis set = -12.5893767509
Symmetry turned off temporarily
 Analysis of SCF Wavefunction

 --------------------------------------------------------------

                    Orbital Energies (a.u.)
 --------------------------------------------------------------

 Alpha MOs
 -- Occupied --
 -0.914  -0.914  -0.805  -0.769  -0.767  -0.757  -0.731  -0.728
 -0.727  -0.727  -0.357  -0.341  -0.327  -0.320  -0.269  -0.265
 -0.246  -0.183
 -- Virtual --
  0.631   0.751   0.791   0.799   0.885   0.897   0.914   0.968
  1.012   1.012   1.036   1.048   1.115   1.127   1.156   1.238
  1.400   1.400

 Beta MOs
 -- Occupied --
 -0.914  -0.914
 -- Virtual --
 -0.105  -0.062  -0.051  -0.039  -0.004  -0.001   0.001   0.003
  0.212   0.232   0.246   0.249   0.314   0.317   0.343   0.422
  0.846   0.976   0.980   1.006   1.086   1.086   1.120   1.150
  1.246   1.252   1.268   1.268   1.328   1.352   1.361   1.400
  1.400   1.439
 --------------------------------------------------------------

          Ground-State Mulliken Net Atomic Charges

     Atom                 Charge (a.u.)    Spin (a.u.)
  --------------------------------------------------------
      1 H                    -0.001922       1.001922
      2 H                    -0.001922       1.001922
      3 H                     0.001943       0.998057
      4 H                     0.000089       0.999911
      5 H                    -0.000129       1.000129
      6 H                     0.001943       0.998057
      7 H                    -0.000129       1.000129
      8 H                     0.000089       0.999911
      9 H                     0.000045       0.999955
     10 H                    -0.000041       1.000041
     11 H                    -0.001920       1.001920
     12 H                     0.000045       0.999955
     13 H                    -0.001920       1.001920
     14 H                     0.001935       0.998065
     15 H                    -0.000041       1.000041
     16 H                     0.001935       0.998065
     17 He                    0.000000      -0.000000
     18 He                    0.000000      -0.000000
  --------------------------------------------------------
  Sum of atomic charges =     0.000000
  Sum of spin   charges =    16.000000

 -----------------------------------------------------------------
                    Cartesian Multipole Moments
 -----------------------------------------------------------------
    Charge (ESU x 10^10)
                 0.0000
    Dipole Moment (Debye)
         X      -0.0002      Y       0.0003      Z       0.0005
       Tot       0.0006
    Quadrupole Moments (Debye-Ang)
        XX     -31.7467     XY      -3.0676     YY     -27.1450
        XZ      -2.6859     YZ       1.5424     ZZ     -24.8906
    Octopole Moments (Debye-Ang^2)
       XXX      39.0566    XXY      26.4964    XYY      18.0233
       YYY      52.7601    XXZ     -47.0512    XYZ       0.0108
       YYZ     -48.8761    XZZ       3.7305    YZZ      15.1138
       ZZZ    -123.3387
    Hexadecapole Moments (Debye-Ang^3)
      XXXX   -1775.6119   XXXY    -118.0072   XXYY    -623.5941
      XYYY    -121.4820   YYYY   -1880.6690   XXXZ      -2.7639
      XXYZ    -164.6211   XYYZ       1.8602   YYYZ    -509.7380
      XXZZ    -562.9366   XYZZ     -31.3191   YYZZ    -575.5779
      XZZZ     -23.6760   YZZZ    -532.5556   ZZZZ   -1584.2435
 -----------------------------------------------------------------
 JobOver = TRUE
Archival summary:
1\1\sinatra\SP\HF\6-31G\e216(\nmayhall\WedMay2413:42:422017WedMay2413:42:422017\0\\#,HF,6-31G,\\0,17\H\H,1,1.01401\H,2,2.37002,1,158.394\H,3,1.01381,2,111.125,1,13.2891,0\H,1,2.37264,2,158.384,3,0.0166749,0\H,5,1.01381,1,111.043,2,-13.2775,0\H,6,2.37001,5,111.125,1,-0.0173386,0\H,7,1.014,6,158.395,5,13.2902,0\H,6,2.42411,5,106.355,1,78.7003,0\H,9,1.01384,6,109.367,5,-113.945,0\H,10,2.33344,9,152.779,6,86.435,0\H,11,1.01383,10,152.035,9,-0.191453,0\H,12,2.38605,11,117.54,10,-5.00432,0\H,13,1.01385,12,117.455,11,-0.129502,0\H,14,2.33344,13,152.779,12,5.32863,0\H,15,1.01383,14,152.035,13,-0.193797,0\He,16,15.5546,15,141.347,14,128.537,0\He,14,15.8886,13,89.6029,12,104.38,0\\HF=-12.5893768\\@

 Total job time:  0.18s(wall), 0.18s(cpu) 
 Wed May 24 13:42:42 2017

        *************************************************************
        *                                                           *
        *  Thank you very much for using Q-Chem.  Have a nice day.  *
        *                                                           *
        *************************************************************


*** MISSION COMPLETED -- STARFLEET OUT ***

 
User input: 2 of 2 
 
                  Welcome to Q-Chem
     A Quantum Leap Into The Future Of Chemistry


 Q-Chem 4.3, Q-Chem, Inc., Pleasanton, CA (2015)

 Y. Shao,  Z. Gan,  E. Epifanovsky,  A. T. B. Gilbert,  M. Wormit,  
 J. Kussmann,  A. W. Lange,  A. Behn,  J. Deng,  X. Feng,  D. Ghosh,  
 M. Goldey,  P. R. Horn,  L. D. Jacobson,  I. Kaliman,  R. Z. Khaliullin,  
 T. Kus,  A. Landau,  J. Liu,  E. I. Proynov,  Y. M. Rhee,  R. M. Richard,  
 M. A. Rohrdanz,  R. P. Steele,  E. J. Sundstrom,  H. L. Woodcock III,  
 P. M. Zimmerman,  D. Zuev,  B. Albrecht,  E. Alguire,  B. Austin,  
 S. A. Baeppler,  G. J. O. Beran,  Y. A. Bernard,  E. Berquist,  
 K. Brandhorst,  K. B. Bravaya,  S. T. Brown,  D. Casanova,  C.-M. Chang,  
 Y. Chen,  S. H. Chien,  K. D. Closser,  D. L. Crittenden,  M. Diedenhofen,  
 R. A. DiStasio Jr.,  H. Do,  A. D. Dutoi,  R. G. Edgar,  P.-T. Fang,  
 S. Fatehi,  Q. Feng,  L. Fusti-Molnar,  A. Ghysels,  
 A. Golubeva-Zadorozhnaya,  J. Gomes,  A. Gunina,  M. W. D. Hanson-Heine,  
 P. H. P. Harbach,  A. W. Hauser,  E. G. Hohenstein,  Z. C. Holden,  K. Hui,  
 T.-C. Jagau,  H. Ji,  B. Kaduk,  K. Khistyaev,  Jaehoon Kim,  Jihan Kim,  
 R. A. King,  P. Klunzinger,  D. Kosenkov,  T. Kowalczyk,  C. M. Krauter,  
 K. U. Lao,  A. Laurent,  K. V. Lawler,  S. Lehtola,  S. V. Levchenko,  
 C. Y. Lin,  Y.-S. Lin,  F. Liu,  E. Livshits,  R. C. Lochan,  A. Luenser,  
 P. Manohar,  S. F. Manzer,  S.-P. Mao,  N. Mardirossian,  A. V. Marenich,  
 L. A. Martinez-Martinez,  S. A. Maurer,  N. J. Mayhall,  K. Nanda,  
 C. M. Oana,  R. Olivares-Amaya,  D. P. O'Neill,  J. A. Parkhill,  
 T. M. Perrine,  R. Peverati,  P. A. Pieniazek,  F. Plasser,  A. Prociuk,  
 D. R. Rehn,  E. Rosta,  N. J. Russ,  N. Sergueev,  S. M. Sharada,  
 S. Sharma,  D. W. Small,  A. Sodt,  T. Stauch,  T. Stein,  D. Stuck,  
 Y.-C. Su,  A. J. W. Thom,  T. Tsuchimochi,  L. Vogt,  O. Vydrov,  T. Wang,  
 M. A. Watson,  J. Wenzel,  A. White,  C. F. Williams,  V. Vanovschi,  
 S. Yeganeh,  S. R. Yost,  Z.-Q. You,  I. Y. Zhang,  X. Zhang,  Y. Zhao,  
 B. R. Brooks,  G. K. L. Chan,  D. M. Chipman,  C. J. Cramer,  
 W. A. Goddard III,  M. S. Gordon,  W. J. Hehre,  A. Klamt,  
 H. F. Schaefer III,  M. W. Schmidt,  C. D. Sherrill,  D. G. Truhlar,  
 A. Warshel,  X. Xu,  A. Aspuru-Guzik,  R. Baer,  A. T. Bell,  N. A. Besley,  
 J.-D. Chai,  A. Dreuw,  B. D. Dunietz,  T. R. Furlani,  S. R. Gwaltney,  
 C.-P. Hsu,  Y. Jung,  J. Kong,  D. S. Lambrecht,  W. Liang,  C. Ochsenfeld,  
 V. A. Rassolov,  L. V. Slipchenko,  J. E. Subotnik,  T. Van Voorhis,  
 J. M. Herbert,  A. I. Krylov,  P. M. W. Gill,  M. Head-Gordon

 Contributors to earlier versions of Q-Chem not listed above: 
 R. D. Adamson,  J. Baker,  E. F. C. Byrd,  A. K. Chakraborty,  C.-L. Cheng,  
 H. Dachsel,  R. J. Doerksen,  G. Hawkins,  A. Heyden,  S. Hirata,  
 G. Kedziora,  F. J. Keil,  C. Kelley,  P. P. Korambath,  W. Kurlancheek,  
 A. M. Lee,  M. S. Lee,  D. Liotard,  I. Lotan,  P. E. Maslen,  N. Nair,  
 D. Neuhauser,  R. Olson,  B. Peters,  J. Ritchie,  N. E. Schultz,  
 N. Shenvi,  A. C. Simmonett,  K. S. Thanthiriwatte,  Q. Wu,  W. Zhang

 Please cite Q-Chem as follows:
 Y. Shao et al., Mol. Phys. 113, 184-215 (2015)
 DOI: 10.1080/00268976.2014.952696

 Q-Chem 4.3.0 for Intel X86 EM64T Linux

 Parts of Q-Chem use Armadillo 5.200.1 (Boston Tea Smuggler).
 http://arma.sourceforge.net/

 Q-Chem begins on Wed May 24 13:42:42 2017  


Host: 0

     Scratch files written to /home/nmayhall/scratch_qchem/qchem22027//
 Dec1416 |home|nmayhall|qcSoftware|qchem|qchem.svn-casman|libmdc|qstr_RNUM -1
 Using version located at /home/nmayhall/qcSoftware/qchem/qchem.svn-casman/bin/qchem

 Turning off symmetry for CASMAN

Total Memory Limit in MB = 2000
Mega-Array Size in MB = 62

Checking the input file for inconsistencies... 	...done.

 Q-Chem warning in module /home/nmayhall/qcSoftware/qchem/qchem.svn-casman/forms1/BasisType.C, line 1452:

 You are not using the predefined 5D/6D in this basis set.

Finally everything over in PARseQInput

--------------------------------------------------------------
User input:
--------------------------------------------------------------
$rem
	exchange 		hf
	unrestricted		0
	basis			6-31g	
	aux_basis		rimp2-vdz
	scf_guess		read	
	scf_convergence		8
	purecart		1111

	symmetry		0
	sym_ignore		1

	correlation		sf-cas
	cas_n_spin_flip		1
	cas_local		1
	gui			2
$end

$development
	1sf_heis_projection	1
	scf_corresponding_orbs	1
        heisenberg_n_roots	0
$end

$molecule
read
$end

--------------------------------------------------------------
 ----------------------------------------------------------------
             Standard Nuclear Orientation (Angstroms)
    I     Atom           X                Y                Z
 ----------------------------------------------------------------
    1      H      -2.5189600000    -2.6191500000     2.0984400000
    2      H       0.7821200000     0.7828700000     1.5134100000
    3      H      -2.2024600000    -0.0936900000     0.5256400000
    4      H       2.5433400000    -1.4342000000     0.9780700000
    5      H      -0.1344400000    -3.3967400000     0.6750800000
    6      H       0.4938500000    -1.7794700000     3.0310100000
    7      H       0.2913600000    -0.9138800000    -0.7662100000
    8      H      -2.5330900000    -2.6848000000    -0.7824300000
    9      H      -2.3518300000    -3.4689800000    -0.1659800000
   10      H      -0.6239300000    -1.2944300000    -0.9798400000
   11      H      -2.9454500000    -0.7724000000     0.6490100000
   12      H       2.3622300000    -0.6502000000     0.3613400000
   13      H       1.2070000000    -1.0617900000     2.9659900000
   14      H      -1.6100000000    -2.6642200000     2.5452200000
   15      H       0.7807400000    -3.0160500000     0.8889100000
   16      H      -0.0979900000     0.7902400000     1.0102100000
   17      He     10.0000000000    10.0000000000    10.0000000000
   18      He    -10.0000000000    10.0000000000    10.0000000000
 ----------------------------------------------------------------
 Nuclear Repulsion Energy =    23.5569904987 hartrees
 There are       18 alpha and        2 beta electrons
 Requested basis set is 6-31G
 There are 36 shells and 36 basis functions

Total QAlloc Memory Limit   2000 MB
Mega-Array Size        61 MB
MEM_STATIC part        62 MB

finished with qalloc call

 Q-Chem warning in module /home/nmayhall/qcSoftware/qchem/qchem.svn-casman/forms1/BasisType.C, line 1375:

 SAD: How to set up polarization functions for non-Pople basis?

 Requested basis set is rimp2-VDZ
 There are 106 shells and 242 basis functions
 Job number = 2, Threshold = 1.00E-12
Integral type ranges set in mkLRange.C for JobNum: 2  <1-7|1-7>
Symmetry turned off temporarily
 Using the largest function pair in Schwarz integrals
Total number of integrals generated =            1470
Symmetry turned back on
 A cutoff of  1.0D-12 yielded    516 shell pairs
 There are       516 function pairs
 Job number = 11, Threshold = 1.00E-12
Integral type ranges set in mkLRange.C for JobNum: 11  <1-1|8-8>

 -------------------------------------------------------
 OpenMP Integral Computing Module                       
 Release: version 1.0, May 2013, Q-Chem Inc. Pittsburgh 
 -------------------------------------------------------
 Integral Job Info:
 Integral job number is                      11
 Integral operator is                         1
 short-range coefficients                     0
 long-range coefficients              100000000
 Omega coefficients                           0
 if combine SR and LR in K                    0
 Integral screening is                        0
 Integral computing path is                   2
 max size of driver memory is            800000
 size of driver memory is                 11780
 size of scratch memory is               800000
 max col of scratch BK array                289
 max len of scratch array in speh3            1
 max len of scratch index in speh4            2
 max int batch size is                      520
 min int batch size is                       52
 fixed nKL is                               520
 max L of basis functions is                  0
 order of int derivative is                   0
 number of shells is                         36
 number of basis is                          36
 number of cartesian basis is                36
 number of contracted shell pairs           516
 number of primitive shell pairs           1464
 maxK2 (contraction) of shell pair            9
 max number of K2 of shell pair               1
 max number of CS2 of shell pair            266
 max number of PS2 of shell pair            798
 mem total for path MDJ                    8208
 -------------------------------------------------------
 Smallest overlap matrix eigenvalue = 6.38E-02
 Multipole matrices computed through 2nd order

  Scale SEOQF with 1.000000e-02/1.000000e-02/1.000000e-02

 Standard Electronic Orientation quadrupole field applied
 Nucleus-field energy     =     0.0000000002 hartrees
GuessMan:  IGuess = 1000
 Guess MOs from SCF MO coefficient file
 Reading MOs from coefficient file
 Reading MOs from coefficient file
scfman initvdwdat 
 A restricted Hartree-Fock SCF calculation will be
 performed using Geometric Direct Minimization
 SCF converges when RMS gradient is below 1.0E-08
Finding J and K together
 Job number = 22, Threshold = 1.00E-12
Integral type ranges set in mkLRange.C for JobNum: 22  <1-1|1-1>
Storing 1363.10% of integrals
Total number of integrals generated =          128278
 MakeJK  time:  CPU       0.04 s  wall       0.04 s
Fock build time:  0.04 s (CPU) 0.04 s (wall)
 ---------------------------------------
  Cycle       Energy        RMS Gradient
 ---------------------------------------
    1     -12.5893767509      3.16E-06  00000 Normal BFGS step
Finding J and K together
 Job number = 22, Threshold = 1.00E-12
Integral type ranges set in mkLRange.C for JobNum: 22  <1-1|1-1>
Storing 1363.10% of integrals
Reusing in-core integrals buffer for job 22
 MakeJK  time:  CPU       0.01 s  wall       0.01 s
Fock build time:  0.01 s (CPU) 0.01 s (wall)
    2     -12.5893767509      6.96E-11  00000 Convergence criterion met
 ---------------------------------------
 SCF time:  CPU 0.05 s  wall 0.05 s
 Obtaining Corresponding orbitals

 Forming corresponding orbitals block-by-block...
 Size of singly occupied alpha block:      16 : 16.0000
 Size of doubly occupied block:             2 : 2.0000
 Size of singly occupied beta block:        0 : 0.0000
 Size of unoccupied block:                 18 : 18.0000
 Use scf_boys =     0 (Canonical)
                    1 (Boys)
                    2 (Pipek-Mezey)
                    3 (ER)
 Build new fock matrix
 I'm here
 I'm here
 Calling AOints...
 Job number = 22, Threshold = 1.00E-12
Integral type ranges set in mkLRange.C for JobNum: 22  <1-1|1-1>
Storing 1363.10% of integrals
 done.
 E(SCF): disk=    -12.589376750948 current=    -12.589376750948 diff=  -1.954e-14
 SCF   energy in the final basis set = -12.5893767509
 Total energy in the final basis set = -12.5893767509
 DevKeyword Parameters: 
 1sf_heis_projection                   1
  heisenberg_n_roots                   0
scf_corresponding_orbs                   1


 ========================================================
                       In SF-CAS-CI                      
 ========================================================
 DevKeyword Parameters: 
 1sf_heis_projection                   1
  heisenberg_n_roots                   0
scf_corresponding_orbs                   1

 Forming orbitals for SF-CAS calculation.
NBas   : 36
NOrb   : 36
NDOcc  : 2
NSOcc  : 16
NDVir  : 18
ISpin  : 0
e_hf: -12.58937675
 Using OPT1 Orbitals: Favg | Favg | Favg 
 A/B mix in Doubly occupied F  : 0.50000000
 A/B mix in Singly occupied F  : 0.50000000
 A/B mix in Doubly unoccupied F: 0.50000000
 Max of F(beta)ds      : 2.645e-16
 Max of F(alpha)sv     : 7.548e-12
 Max of F(average)dv   : 4.013e-12
 Orbital Energies  (D):
    1    -0.91427649    -0.91427649
    2    -0.91403182    -0.91403182
 Orbital Energies  (S):
    3    -0.43529230    -0.43529230
    4    -0.39811774    -0.39811774
    5    -0.39288132    -0.39288132
    6    -0.38225863    -0.38225863
    7    -0.35190573    -0.35190573
    8    -0.35172911    -0.35172911
    9    -0.35045257    -0.35045257
   10    -0.34946239    -0.34946239
   11    -0.05323436    -0.05323436
   12    -0.03584154    -0.03584154
   13    -0.02086322    -0.02086322
   14    -0.01539556    -0.01539556
   15     0.04119762     0.04119762
   16     0.04290743     0.04290743
   17     0.06669861     0.06669861
   18     0.13503844     0.13503844
 Orbital Energies  (V):
   19     0.71856905     0.71856905
   20     0.84607521     0.84607521
   21     0.87390656     0.87390656
   22     0.88295884     0.88295884
   23     0.97397807     0.97397807
   24     0.97855786     0.97855786
   25     1.00560110     1.00560110
   26     1.05206367     1.05206367
   27     1.10640823     1.10640823
   28     1.10666237     1.10666237
   29     1.13064272     1.13064272
   30     1.13648669     1.13648669
   31     1.20352888     1.20352888
   32     1.22134009     1.22134009
   33     1.24116789     1.24116789
   34     1.32295765     1.32295765
   35     1.39970948     1.39970948
   36     1.39995414     1.39995414
 tr(Pa)     :   18.0000000000
 tr(Pb)     :    2.0000000000
 E(core) with new P : -60.31545205
 E(HF) with new P   : -12.58937675
 Difference in Ehf  :   2.3093e-14

 Number of spin flips: 1
 Use cas_local =    0 (Canonical)
                    1 (Boys)
                    2 (Pipek-Mezey)
                    3 (ER)
 Using Boys orbitals in casman
 
 
 
Calling Get_Boys in C++
 
 
 
Orbital 11 Variance 16.08787866
Orbital 3 Variance 19.42653932
Orbital 5 Variance 19.95471719
Orbital 8 Variance 20.17071753
Orbital 1 Variance 20.41616674
Orbital 4 Variance 20.61450018
Orbital 9 Variance 22.05482418
Orbital 10 Variance 22.49162821
Orbital 13 Variance 23.80585916
Orbital 15 Variance 27.23165357
Orbital 6 Variance 27.40037242
Orbital 2 Variance 27.53129307
Orbital 16 Variance 28.65776792
Orbital 12 Variance 29.73756544
Orbital 7 Variance 29.81752667
Orbital 14 Variance 33.07004339
          ***** NUMBER OF SADDLE POINTS SO FAR = 0 ******

Initially in boys_jacobi.C before sweep, get_boys, boysval = 212.828454
In BOYS_JACOBI SWEEPS for get_boys, ending in round     6  because max_diff = 5.507697e-07


---> BEGIN 2nd Der Calculation    ******  
Guessing MaxD =  20 and MinD = 10
in get_boys.C: p = 0 guessthresh  23.2009593961 numsofar 8 MinD 10
DimInGuess 8 mineval  22.2009593961 guessthresh  23.2009593961
round 0 sizeofsub 8 eval0 2.220096e+01 diffeval0 1.000212e+05 length_qM 5.945256e-01 thresh 1.000000e-08
round 1 sizeofsub 9 eval0 2.219801e+01 diffeval0 2.952067e-03 length_qM 8.117861e-02 thresh 1.000000e-08
round 2 sizeofsub 10 eval0 2.219781e+01 diffeval0 1.995190e-04 length_qM 5.006793e-02 thresh 1.000000e-08
round 3 sizeofsub 11 eval0 2.219775e+01 diffeval0 5.393687e-05 length_qM 2.899488e-02 thresh 1.000000e-08
round 4 sizeofsub 12 eval0 2.219769e+01 diffeval0 6.255969e-05 length_qM 6.512896e-02 thresh 1.000000e-08
round 5 sizeofsub 13 eval0 2.219764e+01 diffeval0 4.665611e-05 length_qM 4.941877e-03 thresh 1.000000e-08
round 6 sizeofsub 14 eval0 2.219764e+01 diffeval0 5.602456e-07 length_qM 4.231741e-03 thresh 1.000000e-08
round 7 sizeofsub 15 eval0 2.219764e+01 diffeval0 3.411939e-07 length_qM 2.743424e-04 thresh 1.000000e-08
round 8 sizeofsub 16 eval0 2.219764e+01 diffeval0 7.392842e-10 length_qM 3.755273e-05 thresh 1.000000e-08
round 9 sizeofsub 17 eval0 2.219764e+01 diffeval0 1.101697e-11 length_qM 5.923054e-07 thresh 1.000000e-08
Converged to smallest eigenvalue: eval0 2.219764e+01

Success!!! No Negative Eigenvalues: Ending Get Boys in C++ ...Bye Bye
Orbital 16 Variance 2.85797936
Orbital 5 Variance 2.85798194
Orbital 4 Variance 2.85845440
Orbital 11 Variance 2.85845809
Orbital 12 Variance 2.86234006
Orbital 13 Variance 2.86234354
Orbital 15 Variance 2.86237541
Orbital 9 Variance 2.86238610
Orbital 8 Variance 2.87729152
Orbital 3 Variance 2.87730257
Orbital 1 Variance 2.87751752
Orbital 7 Variance 2.87752019
Orbital 6 Variance 2.89723873
Orbital 2 Variance 2.89724280
Orbital 14 Variance 2.89744494
Orbital 10 Variance 2.89744867
EXECUTING ORTHO_FUNC DESTRUCTOR

 Dimensions of orbital sub-spaces:    
 Number Hole Orbs:Alpha:Beta:       2    2    2
 Number Active Orbs:Alpha:Beta:    16   15    1
 Number Part Orbs:Alpha:Beta:      18    0    0

 Dimensions in SF-RAS-hp calculation: 
 Number of active space determinants:  256
 Number of hole space determinants:    3872
 Number of part space determinants:    34848
 Number of hole-part determinants:     536868
 Total 1x space:                       38976
 Total singles space:                  575844
 REM_MEM_TOT: 2000
 Memory Used: 0
 Memory Left: 2000
 Memory Need: 4
 Constructing 1e MO integrals
 Form (P|Q)**(-1/2)...
 Job number = 66, Threshold = 1.00E-12
Integral type ranges set in mkLRange.C for JobNum: 66  <2-7|2-7>
Symmetry turned off temporarily
Storing 1363.10% of integrals
Total number of integrals generated =           33759
Symmetry turned back on
 Forming (pq|P)...
 Forming Active-Active (aa|P) integrals...

 Entering first-index batching code with I1Strt =    3 batch size =   16
 Job number = 65, Threshold = 1.00E-12
Integral type ranges set in mkLRange.C for JobNum: 65  <1-1|2-7>
Symmetry turned off temporarily
Storing 1363.10% of integrals
Total number of integrals generated =          133128
Symmetry turned back on
 Forming Active-Active B integrals...
 Contracting B matrices to form 2e integrals. 
 Forming 2J-K over o,v with exact integrals
 Calling AOints... Job number = 22, Threshold = 1.00E-12
Integral type ranges set in mkLRange.C for JobNum: 22  <1-1|1-1>
Storing 1363.10% of integrals
Total number of integrals generated =          128278
 done.

 ROHF energy found on disk: 
 E(ROHF):         -12.58937675
-12.58937675
 First 10 Diagonal elements of H: 
 111111111111111_ | 1_______________        -12.03136932
 111111111111111_ | _1______________        -12.12065955
 111111111111111_ | __1_____________        -12.00708990
 111111111111111_ | ___1____________        -12.28640398
 111111111111111_ | ____1___________        -12.08026103
 111111111111111_ | _____1__________        -12.02090184
 111111111111111_ | ______1_________        -12.02701490
 111111111111111_ | _______1________        -12.07071354
 111111111111111_ | ________1_______        -12.01821567
 111111111111111_ | _________1______        -12.06713828
 Fill S2_CAS Matrix...  done.
 Fill H_CAS Matrix...  done.

 Diagonalizing H_CAS 
 Entering cast_sfcas_to_sfcis
 ===================================================================
 Theory           State:          Energy (au)       (eV)       <S2>
 -------------------------------------------------------------------
 SF-CAS               1:       -12.8558799820     0.0000    56.0000
 SF-CAS               2:       -12.8485914319     0.1983    56.0000
 SF-CAS               3:       -12.8472183579     0.2357    56.0000
 SF-CAS               4:       -12.8469069904     0.2442    56.0000
 SF-CAS               5:       -12.8414016373     0.3940    56.0000
 SF-CAS               6:       -12.8391728181     0.4546    56.0000
 SF-CAS               7:       -12.8384104785     0.4754    56.0000
 SF-CAS               8:       -12.8362414363     0.5344    56.0000
 SF-CAS               9:       -12.6283757247     6.1908    56.0000
 SF-CAS              10:       -12.6231847355     6.3320    56.0000
 SF-CAS              11:       -12.6178886980     6.4761    56.0000
 SF-CAS              12:       -12.6178666138     6.4767    56.0000
 SF-CAS              13:       -12.6100911702     6.6883    56.0000
 SF-CAS              14:       -12.6099214396     6.6929    56.0000
 SF-CAS              15:       -12.5999036575     6.9655    56.0000
 SF-CAS              16:       -12.5909582526     7.2090    56.0000
 SF-CAS              17:       -12.5893767509     7.2520    72.0000
 SF-CAS              18:       -12.5661473017     7.8841    56.0000
 SF-CAS              19:       -12.5627466402     7.9766    56.0000
 SF-CAS              20:       -12.5563414765     8.1509    56.0000
 SF-CAS              21:       -12.5429420836     8.5156    56.0000
 SF-CAS              22:       -12.5408631991     8.5721    56.0000
 SF-CAS              23:       -12.5362721915     8.6971    56.0000
 SF-CAS              24:       -12.5314590165     8.8280    56.0000
 SF-CAS              25:       -12.5306817344     8.8492    56.0000
 SF-CAS              26:       -12.5214775411     9.0996    56.0000
 SF-CAS              27:       -12.5207285218     9.1200    56.0000
 SF-CAS              28:       -12.5176122368     9.2048    56.0000
 SF-CAS              29:       -12.5172602638     9.2144    56.0000
 SF-CAS              30:       -12.5118629594     9.3613    56.0000
 SF-CAS              31:       -12.5114331452     9.3730    56.0000
 SF-CAS              32:       -12.4904804676     9.9431    56.0000
 SF-CAS              33:       -12.4903341788     9.9471    56.0000
 SF-CAS              34:       -12.4835960654    10.1305    56.0000
 SF-CAS              35:       -12.4806383577    10.2109    56.0000
 SF-CAS              36:       -12.4790800789    10.2533    56.0000
 SF-CAS              37:       -12.4780835328    10.2805    56.0000
 SF-CAS              38:       -12.4775891474    10.2939    56.0000
 SF-CAS              39:       -12.4706080604    10.4839    56.0000
 SF-CAS              40:       -12.4705096373    10.4866    56.0000
 SF-CAS              41:       -12.4678050919    10.5602    56.0000
 SF-CAS              42:       -12.4663882177    10.5987    56.0000
 SF-CAS              43:       -12.4577649515    10.8334    56.0000
 SF-CAS              44:       -12.4547761680    10.9147    56.0000
 SF-CAS              45:       -12.4547408725    10.9157    56.0000
 SF-CAS              46:       -12.4485697092    11.0836    56.0000
 SF-CAS              47:       -12.4461943163    11.1482    56.0000
 SF-CAS              48:       -12.4455973277    11.1645    56.0000
 SF-CAS              49:       -12.4451852071    11.1757    56.0000
 SF-CAS              50:       -12.4419566317    11.2635    56.0000
 SF-CAS              51:       -12.4288991041    11.6189    56.0000
 SF-CAS              52:       -12.4273190683    11.6618    56.0000
 SF-CAS              53:       -12.4256789622    11.7065    56.0000
 SF-CAS              54:       -12.4252617009    11.7178    56.0000
 SF-CAS              55:       -12.4223047114    11.7983    56.0000
 SF-CAS              56:       -12.4212154467    11.8279    56.0000
 SF-CAS              57:       -12.4100518722    12.1317    56.0000
 SF-CAS              58:       -12.4053034778    12.2609    56.0000
 SF-CAS              59:       -12.4041295259    12.2929    56.0000
 SF-CAS              60:       -12.4002752327    12.3978    56.0000
 SF-CAS              61:       -12.3953180812    12.5326    56.0000
 SF-CAS              62:       -12.3940519236    12.5671    56.0000
 SF-CAS              63:       -12.3797025275    12.9576    56.0000
 SF-CAS              64:       -12.3781385994    13.0001    56.0000
 SF-CAS              65:       -12.3743915674    13.1021    56.0000
 SF-CAS              66:       -12.3671042588    13.3004    56.0000
 SF-CAS              67:       -12.3623945587    13.4286    56.0000
 SF-CAS              68:       -12.3590588075    13.5193    56.0000
 SF-CAS              69:       -12.3583687388    13.5381    56.0000
 SF-CAS              70:       -12.3567588225    13.5819    56.0000
 SF-CAS              71:       -12.3496337563    13.7758    56.0000
 SF-CAS              72:       -12.3456888897    13.8831    56.0000
 SF-CAS              73:       -12.3444488542    13.9169    56.0000
 SF-CAS              74:       -12.3344089933    14.1901    56.0000
 SF-CAS              75:       -12.3274892914    14.3784    56.0000
 SF-CAS              76:       -12.3262869799    14.4111    56.0000
 SF-CAS              77:       -12.3113775013    14.8168    56.0000
 SF-CAS              78:       -12.3082789551    14.9011    56.0000
 SF-CAS              79:       -12.3010031319    15.0991    56.0000
 SF-CAS              80:       -12.2834408397    15.5770    56.0000
 SF-CAS              81:       -12.2693070490    15.9616    56.0000
 SF-CAS              82:       -12.2569123996    16.2989    56.0000
 SF-CAS              83:       -12.2460511434    16.5944    56.0000
 SF-CAS              84:       -12.2426030330    16.6883    56.0000
 SF-CAS              85:       -12.2225807579    17.2331    56.0000
 SF-CAS              86:       -12.2177904512    17.3635    56.0000
 SF-CAS              87:       -12.2171684244    17.3804    56.0000
 SF-CAS              88:       -12.2142893446    17.4587    56.0000
 SF-CAS              89:       -12.2137758220    17.4727    56.0000
 SF-CAS              90:       -12.2119248648    17.5231    56.0000
 SF-CAS              91:       -12.2012581083    17.8133    56.0000
 SF-CAS              92:       -12.2011491122    17.8163    56.0000
 SF-CAS              93:       -12.1917166712    18.0730    56.0000
 SF-CAS              94:       -12.1816223063    18.3477    56.0000
 SF-CAS              95:       -12.1811098062    18.3616    56.0000
 SF-CAS              96:       -12.1792536795    18.4121    56.0000
 SF-CAS              97:       -12.1759157081    18.5029    56.0000
 SF-CAS              98:       -12.1637655281    18.8336    56.0000
 SF-CAS              99:       -12.1620209119    18.8811    56.0000
 SF-CAS             100:       -12.1609537925    18.9101    56.0000
 SF-CAS             101:       -12.1553969702    19.0613    56.0000
 SF-CAS             102:       -12.1522733192    19.1463    56.0000
 SF-CAS             103:       -12.1486102080    19.2460    56.0000
 SF-CAS             104:       -12.1479525307    19.2639    56.0000
 SF-CAS             105:       -12.1469008513    19.2925    56.0000
 SF-CAS             106:       -12.1435126641    19.3847    56.0000
 SF-CAS             107:       -12.1408459006    19.4573    56.0000
 SF-CAS             108:       -12.1370874747    19.5595    56.0000
 SF-CAS             109:       -12.1347574539    19.6229    56.0000
 SF-CAS             110:       -12.1306604671    19.7344    56.0000
 SF-CAS             111:       -12.1303863667    19.7419    56.0000
 SF-CAS             112:       -12.1235471590    19.9280    56.0000
 SF-CAS             113:       -12.1029698608    20.4879    56.0000
 SF-CAS             114:       -12.0989077068    20.5985    56.0000
 SF-CAS             115:       -12.0933964294    20.7484    56.0000
 SF-CAS             116:       -12.0900366506    20.8399    56.0000
 SF-CAS             117:       -12.0890275448    20.8673    56.0000
 SF-CAS             118:       -12.0889682047    20.8689    56.0000
 SF-CAS             119:       -12.0850025759    20.9768    56.0000
 SF-CAS             120:       -12.0831101249    21.0283    56.0000
 SF-CAS             121:       -12.0799869201    21.1133    56.0000
 SF-CAS             122:       -12.0785053964    21.1536    56.0000
 SF-CAS             123:       -12.0776790386    21.1761    56.0000
 SF-CAS             124:       -12.0742071497    21.2706    56.0000
 SF-CAS             125:       -12.0733935073    21.2927    56.0000
 SF-CAS             126:       -12.0723640187    21.3208    56.0000
 SF-CAS             127:       -12.0677503252    21.4463    56.0000
 SF-CAS             128:       -12.0676334372    21.4495    56.0000
 SF-CAS             129:       -12.0666308811    21.4768    56.0000
 SF-CAS             130:       -12.0648792136    21.5244    56.0000
 SF-CAS             131:       -12.0632118996    21.5698    56.0000
 SF-CAS             132:       -12.0630440935    21.5744    56.0000
 SF-CAS             133:       -12.0617402766    21.6099    56.0000
 SF-CAS             134:       -12.0581417265    21.7078    56.0000
 SF-CAS             135:       -12.0561991485    21.7606    56.0000
 SF-CAS             136:       -12.0548585564    21.7971    56.0000
 SF-CAS             137:       -12.0526229643    21.8579    56.0000
 SF-CAS             138:       -12.0508006642    21.9075    56.0000
 SF-CAS             139:       -12.0483881747    21.9732    56.0000
 SF-CAS             140:       -12.0466486848    22.0205    56.0000
 SF-CAS             141:       -12.0453611150    22.0556    56.0000
 SF-CAS             142:       -12.0440089813    22.0923    56.0000
 SF-CAS             143:       -12.0381760308    22.2511    56.0000
 SF-CAS             144:       -12.0343287722    22.3558    56.0000
 SF-CAS             145:       -12.0313338198    22.4373    56.0000
 SF-CAS             146:       -12.0312497375    22.4395    56.0000
 SF-CAS             147:       -12.0268188961    22.5601    56.0000
 SF-CAS             148:       -12.0264864391    22.5692    56.0000
 SF-CAS             149:       -12.0257245221    22.5899    56.0000
 SF-CAS             150:       -12.0195974110    22.7566    56.0000
 SF-CAS             151:       -12.0171510477    22.8232    56.0000
 SF-CAS             152:       -12.0151933680    22.8765    56.0000
 SF-CAS             153:       -12.0141908814    22.9037    56.0000
 SF-CAS             154:       -12.0107802088    22.9966    56.0000
 SF-CAS             155:       -12.0096975648    23.0260    56.0000
 SF-CAS             156:       -12.0083249818    23.0634    56.0000
 SF-CAS             157:       -12.0051718752    23.1492    56.0000
 SF-CAS             158:       -12.0050141898    23.1535    56.0000
 SF-CAS             159:       -12.0010748168    23.2607    56.0000
 SF-CAS             160:       -11.9990378563    23.3161    56.0000
 SF-CAS             161:       -11.9961685978    23.3942    56.0000
 SF-CAS             162:       -11.9924894513    23.4943    56.0000
 SF-CAS             163:       -11.9918759804    23.5110    56.0000
 SF-CAS             164:       -11.9909836457    23.5353    56.0000
 SF-CAS             165:       -11.9862702153    23.6635    56.0000
 SF-CAS             166:       -11.9858738344    23.6743    56.0000
 SF-CAS             167:       -11.9852309241    23.6918    56.0000
 SF-CAS             168:       -11.9846188079    23.7085    56.0000
 SF-CAS             169:       -11.9816065021    23.7904    56.0000
 SF-CAS             170:       -11.9806485784    23.8165    56.0000
 SF-CAS             171:       -11.9789059850    23.8639    56.0000
 SF-CAS             172:       -11.9769468595    23.9172    56.0000
 SF-CAS             173:       -11.9747524715    23.9769    56.0000
 SF-CAS             174:       -11.9728126284    24.0297    56.0000
 SF-CAS             175:       -11.9722762159    24.0443    56.0000
 SF-CAS             176:       -11.9696608787    24.1155    56.0000
 SF-CAS             177:       -11.9689128492    24.1358    56.0000
 SF-CAS             178:       -11.9632485503    24.2900    56.0000
 SF-CAS             179:       -11.9629336825    24.2985    56.0000
 SF-CAS             180:       -11.9626304520    24.3068    56.0000
 SF-CAS             181:       -11.9599616723    24.3794    56.0000
 SF-CAS             182:       -11.9591899286    24.4004    56.0000
 SF-CAS             183:       -11.9584174091    24.4214    56.0000
 SF-CAS             184:       -11.9539511969    24.5430    56.0000
 SF-CAS             185:       -11.9529348078    24.5706    56.0000
 SF-CAS             186:       -11.9454460393    24.7744    56.0000
 SF-CAS             187:       -11.9440433270    24.8126    56.0000
 SF-CAS             188:       -11.9417653610    24.8746    56.0000
 SF-CAS             189:       -11.9405519457    24.9076    56.0000
 SF-CAS             190:       -11.9399870881    24.9230    56.0000
 SF-CAS             191:       -11.9386392873    24.9596    56.0000
 SF-CAS             192:       -11.9340587213    25.0843    56.0000
 SF-CAS             193:       -11.9322310020    25.1340    56.0000
 SF-CAS             194:       -11.9300498709    25.1934    56.0000
 SF-CAS             195:       -11.9291929182    25.2167    56.0000
 SF-CAS             196:       -11.9277882677    25.2549    56.0000
 SF-CAS             197:       -11.9087482166    25.7730    56.0000
 SF-CAS             198:       -11.9003407974    26.0018    56.0000
 SF-CAS             199:       -11.8934485524    26.1893    56.0000
 SF-CAS             200:       -11.8924879223    26.2155    56.0000
 SF-CAS             201:       -11.7655520137    29.6696    56.0000
 SF-CAS             202:       -11.7604202314    29.8093    56.0000
 SF-CAS             203:       -11.7548766886    29.9601    56.0000
 SF-CAS             204:       -11.7534799530    29.9981    56.0000
 SF-CAS             205:       -11.7519828144    30.0389    56.0000
 SF-CAS             206:       -11.7426491290    30.2928    56.0000
 SF-CAS             207:       -11.7424580570    30.2980    56.0000
 SF-CAS             208:       -11.7407067450    30.3457    56.0000
 SF-CAS             209:       -11.7385971586    30.4031    56.0000
 SF-CAS             210:       -11.7312270085    30.6037    56.0000
 SF-CAS             211:       -11.7298350272    30.6415    56.0000
 SF-CAS             212:       -11.7288690961    30.6678    56.0000
 SF-CAS             213:       -11.7263451561    30.7365    56.0000
 SF-CAS             214:       -11.7252383238    30.7666    56.0000
 SF-CAS             215:       -11.7223049311    30.8464    56.0000
 SF-CAS             216:       -11.7190971489    30.9337    56.0000
 SF-CAS             217:       -11.7189335005    30.9382    56.0000
 SF-CAS             218:       -11.7143526857    31.0628    56.0000
 SF-CAS             219:       -11.7011908415    31.4210    56.0000
 SF-CAS             220:       -11.6980358631    31.5068    56.0000
 SF-CAS             221:       -11.6892339252    31.7464    56.0000
 SF-CAS             222:       -11.6881397580    31.7761    56.0000
 SF-CAS             223:       -11.6872404442    31.8006    56.0000
 SF-CAS             224:       -11.6842468995    31.8821    56.0000
 SF-CAS             225:       -11.6817979515    31.9487    56.0000
 SF-CAS             226:       -11.6806122380    31.9810    56.0000
 SF-CAS             227:       -11.6747605696    32.1402    56.0000
 SF-CAS             228:       -11.6747199622    32.1413    56.0000
 SF-CAS             229:       -11.6733434567    32.1788    56.0000
 SF-CAS             230:       -11.6667323296    32.3587    56.0000
 SF-CAS             231:       -11.6557389582    32.6578    56.0000
 SF-CAS             232:       -11.6517725485    32.7658    56.0000
 SF-CAS             233:       -11.6480733835    32.8664    56.0000
 SF-CAS             234:       -11.6479851564    32.8688    56.0000
 SF-CAS             235:       -11.6392501814    33.1065    56.0000
 SF-CAS             236:       -11.6340979345    33.2467    56.0000
 SF-CAS             237:       -11.6328955047    33.2794    56.0000
 SF-CAS             238:       -11.6316653657    33.3129    56.0000
 SF-CAS             239:       -11.6293301370    33.3764    56.0000
 SF-CAS             240:       -11.6253447928    33.4849    56.0000
 SF-CAS             241:       -11.6234050192    33.5377    56.0000
 SF-CAS             242:       -11.6123029562    33.8398    56.0000
 SF-CAS             243:       -11.6120291531    33.8472    56.0000
 SF-CAS             244:       -11.6109337057    33.8770    56.0000
 SF-CAS             245:       -11.6018961711    34.1230    56.0000
 SF-CAS             246:       -11.5939286666    34.3398    56.0000
 SF-CAS             247:       -11.5871518549    34.5242    56.0000
 SF-CAS             248:       -11.5749941599    34.8550    56.0000
 SF-CAS             249:       -11.5562611227    35.3648    56.0000
 SF-CAS             250:       -11.5556401954    35.3817    56.0000
 SF-CAS             251:       -11.5496930144    35.5435    56.0000
 SF-CAS             252:       -11.5496140580    35.5457    56.0000
 SF-CAS             253:       -11.5302980806    36.0713    56.0000
 SF-CAS             254:       -11.5259340958    36.1900    56.0000
 SF-CAS             255:       -11.5124941779    36.5557    56.0000
 SF-CAS             256:       -11.4902168416    37.1619    56.0000
 ===================================================================

              Active Space Coefficients > 0.20
 -------------------------------------------------------------------
 State  1                       Configuration         Coeff.   <S^2>
 -------------------------------------------------------------------
          111111111111111_ | _______________1      -0.230857  57.000
          11111111111111_1 | ______________1_      -0.202322  57.000
          111111111111_111 | ____________1___       0.202192  57.000
          11111111111_1111 | ___________1____      -0.202149  57.000
          1111111111_11111 | __________1_____      -0.230808  57.000
          11111111_1111111 | ________1_______      -0.202438  57.000
          1111_11111111111 | ____1___________       0.230914  57.000
          111_111111111111 | ___1____________       0.230753  57.000
 -------------------------------------------------------------------
 State  2                       Configuration         Coeff.   <S^2>
 -------------------------------------------------------------------
          111111111111111_ | _______________1       0.271755  57.000
          1111111111_11111 | __________1_____       0.271611  57.000
          1111_11111111111 | ____1___________      -0.271683  57.000
          111_111111111111 | ___1____________      -0.271668  57.000
 -------------------------------------------------------------------
 State  3                       Configuration         Coeff.   <S^2>
 -------------------------------------------------------------------
          11111111111111_1 | ______________1_      -0.265363  57.000
          111111111111_111 | ____________1___      -0.257715  57.000
          11111111111_1111 | ___________1____      -0.258039  57.000
          11111111_1111111 | ________1_______       0.265172  57.000
          1111111_11111111 | _______1________      -0.244536  57.000
          111111_111111111 | ______1_________       0.236393  57.000
          11_1111111111111 | __1_____________      -0.244350  57.000
          _111111111111111 | 1_______________      -0.236713  57.000
 -------------------------------------------------------------------
 State  4                       Configuration         Coeff.   <S^2>
 -------------------------------------------------------------------
          11111111111111_1 | ______________1_       0.242811  57.000
          111111111111_111 | ____________1___      -0.251503  57.000
          11111111111_1111 | ___________1____      -0.251218  57.000
          11111111_1111111 | ________1_______      -0.242747  57.000
          1111111_11111111 | _______1________       0.260006  57.000
          111111_111111111 | ______1_________       0.267986  57.000
          11_1111111111111 | __1_____________       0.259945  57.000
          _111111111111111 | 1_______________      -0.267704  57.000
 -------------------------------------------------------------------
 State  5                       Configuration         Coeff.   <S^2>
 -------------------------------------------------------------------
          111111111111111_ | ___1____________       0.251522  56.000
          111111111111111_ | _______________1      -0.359012  57.000
          1111111111_11111 | ____1___________      -0.251535  56.000
          1111111111_11111 | __________1_____       0.358772  57.000
          1111_11111111111 | ____1___________      -0.358942  57.000
          1111_11111111111 | __________1_____       0.251475  56.000
          111_111111111111 | ___1____________       0.358839  57.000
          111_111111111111 | _______________1      -0.251582  56.000
 -------------------------------------------------------------------
 State  6                       Configuration         Coeff.   <S^2>
 -------------------------------------------------------------------
          11111111111111_1 | ______________1_       0.284888  57.000
          111111111111_111 | ____________1___       0.285041  57.000
          11111111111_1111 | ___________1____      -0.284795  57.000
          11111111_1111111 | ________1_______       0.284894  57.000
          1111111_11111111 | _______1________       0.286101  57.000
          1111111_11111111 | ______________1_      -0.202897  56.000
          111111_111111111 | ______1_________      -0.286205  57.000
          111111_111111111 | ____________1___      -0.202905  56.000
          11_1111111111111 | __1_____________      -0.286108  57.000
          11_1111111111111 | ________1_______       0.202903  56.000
          _111111111111111 | 1_______________      -0.285974  57.000
          _111111111111111 | ___________1____       0.202734  56.000
 -------------------------------------------------------------------
 State  7                       Configuration         Coeff.   <S^2>
 -------------------------------------------------------------------
          1111111111111_11 | _____1__________       0.255277  56.000
          1111111111111_11 | _____________1__      -0.364147  57.000
          111111111_111111 | _1______________      -0.255415  56.000
          111111111_111111 | _________1______       0.364354  57.000
          11111_1111111111 | _____1__________       0.364142  57.000
          11111_1111111111 | _____________1__      -0.255259  56.000
          1_11111111111111 | _1______________      -0.364329  57.000
          1_11111111111111 | _________1______       0.255399  56.000
 -------------------------------------------------------------------
 State  8                       Configuration         Coeff.   <S^2>
 -------------------------------------------------------------------
          1111111111111_11 | _____1__________       0.254005  56.000
          1111111111111_11 | _____________1__      -0.362127  57.000
          111111111_111111 | _1______________       0.253855  56.000
          111111111_111111 | _________1______      -0.361913  57.000
          11111_1111111111 | _____1__________       0.362167  57.000
          11111_1111111111 | _____________1__      -0.253985  56.000
          1_11111111111111 | _1______________       0.361951  57.000
          1_11111111111111 | _________1______      -0.253835  56.000
 -------------------------------------------------------------------
 State  9                       Configuration         Coeff.   <S^2>
 -------------------------------------------------------------------
          11111111111111_1 | ______________1_      -0.304744  57.000
          111111111111_111 | ____________1___       0.304716  57.000
          11111111111_1111 | ___________1____      -0.304704  57.000
          11111111_1111111 | ________1_______      -0.304751  57.000
          1111111_11111111 | _______1________       0.321290  57.000
          111111_111111111 | ______1_________       0.321219  57.000
          11_1111111111111 | __1_____________      -0.321299  57.000
          _111111111111111 | 1_______________       0.321205  57.000
 -------------------------------------------------------------------
 State  10                      Configuration         Coeff.   <S^2>
 -------------------------------------------------------------------
          111111111111111_ | _______________1       0.306785  57.000
          1111111111111_11 | _____________1__      -0.331455  57.000
          1111111111_11111 | __________1_____      -0.307099  57.000
          111111111_111111 | _________1______      -0.331435  57.000
          11111_1111111111 | _____1__________      -0.331112  57.000
          1111_11111111111 | ____1___________      -0.306823  57.000
          111_111111111111 | ___1____________       0.307059  57.000
          1_11111111111111 | _1______________      -0.331101  57.000
 -------------------------------------------------------------------
 State  11                      Configuration         Coeff.   <S^2>
 -------------------------------------------------------------------
          11111111111111_1 | ______________1_      -0.253267  57.000
          111111111111_111 | ____________1___      -0.274239  57.000
          11111111111_1111 | ___________1____      -0.274251  57.000
          11111111_1111111 | ________1_______       0.253256  57.000
          1111111_11111111 | _______1________       0.284202  57.000
          111111_111111111 | ______1_________      -0.317095  57.000
          11_1111111111111 | __1_____________       0.284192  57.000
          _111111111111111 | 1_______________       0.317107  57.000
 -------------------------------------------------------------------
 State  12                      Configuration         Coeff.   <S^2>
 -------------------------------------------------------------------
          111111111111111_ | _______________1      -0.418460  57.000
          1111111111_11111 | __________1_____      -0.421006  57.000
          1111_11111111111 | ____1___________      -0.418437  57.000
          111_111111111111 | ___1____________      -0.421027  57.000
 -------------------------------------------------------------------
 State  13                      Configuration         Coeff.   <S^2>
 -------------------------------------------------------------------
          1111111111111_11 | _____________1__      -0.422217  57.000
          111111111_111111 | _________1______       0.422221  57.000
          11111_1111111111 | _____1__________      -0.423161  57.000
          1_11111111111111 | _1______________       0.423168  57.000
 -------------------------------------------------------------------
 State  14                      Configuration         Coeff.   <S^2>
 -------------------------------------------------------------------
          11111111111111_1 | ______________1_       0.343681  57.000
          111111111111_111 | ____________1___      -0.345922  57.000
          11111111111_1111 | ___________1____      -0.345924  57.000
          11111111_1111111 | ________1_______      -0.343684  57.000
          1111111_11111111 | _______1________      -0.291922  57.000
          111111_111111111 | ______1_________      -0.295245  57.000
          11_1111111111111 | __1_____________      -0.291926  57.000
          _111111111111111 | 1_______________       0.295246  57.000
 -------------------------------------------------------------------
 State  15                      Configuration         Coeff.   <S^2>
 -------------------------------------------------------------------
          111111111111111_ | _______________1       0.260610  57.000
          11111111111111_1 | ______________1_       0.243198  57.000
          1111111111111_11 | _____________1__       0.223326  57.000
          111111111111_111 | ____________1___       0.244147  57.000
          11111111111_1111 | ___________1____      -0.244148  57.000
          1111111111_11111 | __________1_____      -0.261278  57.000
          111111111_111111 | _________1______       0.223332  57.000
          11111111_1111111 | ________1_______       0.243194  57.000
          1111111_11111111 | _______1________      -0.240754  57.000
          111111_111111111 | ______1_________       0.240869  57.000
          11111_1111111111 | _____1__________       0.223745  57.000
          1111_11111111111 | ____1___________      -0.260608  57.000
          111_111111111111 | ___1____________       0.261279  57.000
          11_1111111111111 | __1_____________       0.240750  57.000
          1_11111111111111 | _1______________       0.223751  57.000
          _111111111111111 | 1_______________       0.240870  57.000
 -------------------------------------------------------------------
 State  16                      Configuration         Coeff.   <S^2>
 -------------------------------------------------------------------
 -------------------------------------------------------------------
 State  17                      Configuration         Coeff.   <S^2>
 -------------------------------------------------------------------
          111111111111111_ | _______________1      -0.250000  57.000
          11111111111111_1 | ______________1_       0.250000  57.000
          1111111111111_11 | _____________1__      -0.250000  57.000
          111111111111_111 | ____________1___       0.250000  57.000
          11111111111_1111 | ___________1____      -0.250000  57.000
          1111111111_11111 | __________1_____       0.250000  57.000
          111111111_111111 | _________1______      -0.250000  57.000
          11111111_1111111 | ________1_______       0.250000  57.000
          1111111_11111111 | _______1________      -0.250000  57.000
          111111_111111111 | ______1_________       0.250000  57.000
          11111_1111111111 | _____1__________      -0.250000  57.000
          1111_11111111111 | ____1___________       0.250000  57.000
          111_111111111111 | ___1____________      -0.250000  57.000
          11_1111111111111 | __1_____________       0.250000  57.000
          1_11111111111111 | _1______________      -0.250000  57.000
          _111111111111111 | 1_______________       0.250000  57.000
 -------------------------------------------------------------------
 State  18                      Configuration         Coeff.   <S^2>
 -------------------------------------------------------------------
 -------------------------------------------------------------------
 State  19                      Configuration         Coeff.   <S^2>
 -------------------------------------------------------------------
 -------------------------------------------------------------------
 State  20                      Configuration         Coeff.   <S^2>
 -------------------------------------------------------------------
 -------------------------------------------------------------------
 State  21                      Configuration         Coeff.   <S^2>
 -------------------------------------------------------------------
          11111111111111_1 | _______________1      -0.215701  56.000
          111111111111_111 | __________1_____      -0.214973  56.000
          11111111111_1111 | ___1____________      -0.214984  56.000
          11111111_1111111 | ____1___________      -0.215701  56.000
 -------------------------------------------------------------------
 State  22                      Configuration         Coeff.   <S^2>
 -------------------------------------------------------------------
 -------------------------------------------------------------------
 State  23                      Configuration         Coeff.   <S^2>
 -------------------------------------------------------------------
 -------------------------------------------------------------------
 State  24                      Configuration         Coeff.   <S^2>
 -------------------------------------------------------------------
 -------------------------------------------------------------------
 State  25                      Configuration         Coeff.   <S^2>
 -------------------------------------------------------------------
 -------------------------------------------------------------------
 State  26                      Configuration         Coeff.   <S^2>
 -------------------------------------------------------------------
 -------------------------------------------------------------------
 State  27                      Configuration         Coeff.   <S^2>
 -------------------------------------------------------------------
 -------------------------------------------------------------------
 State  28                      Configuration         Coeff.   <S^2>
 -------------------------------------------------------------------
 -------------------------------------------------------------------
 State  29                      Configuration         Coeff.   <S^2>
 -------------------------------------------------------------------
 -------------------------------------------------------------------
 State  30                      Configuration         Coeff.   <S^2>
 -------------------------------------------------------------------
 -------------------------------------------------------------------
 State  31                      Configuration         Coeff.   <S^2>
 -------------------------------------------------------------------
 -------------------------------------------------------------------
 State  32                      Configuration         Coeff.   <S^2>
 -------------------------------------------------------------------
 -------------------------------------------------------------------
 State  33                      Configuration         Coeff.   <S^2>
 -------------------------------------------------------------------
 -------------------------------------------------------------------
 State  34                      Configuration         Coeff.   <S^2>
 -------------------------------------------------------------------
 -------------------------------------------------------------------
 State  35                      Configuration         Coeff.   <S^2>
 -------------------------------------------------------------------
 -------------------------------------------------------------------
 State  36                      Configuration         Coeff.   <S^2>
 -------------------------------------------------------------------
 -------------------------------------------------------------------
 State  37                      Configuration         Coeff.   <S^2>
 -------------------------------------------------------------------
 -------------------------------------------------------------------
 State  38                      Configuration         Coeff.   <S^2>
 -------------------------------------------------------------------
 -------------------------------------------------------------------
 State  39                      Configuration         Coeff.   <S^2>
 -------------------------------------------------------------------
 -------------------------------------------------------------------
 State  40                      Configuration         Coeff.   <S^2>
 -------------------------------------------------------------------
 -------------------------------------------------------------------
 State  41                      Configuration         Coeff.   <S^2>
 -------------------------------------------------------------------
 -------------------------------------------------------------------
 State  42                      Configuration         Coeff.   <S^2>
 -------------------------------------------------------------------
 -------------------------------------------------------------------
 State  43                      Configuration         Coeff.   <S^2>
 -------------------------------------------------------------------
 -------------------------------------------------------------------
 State  44                      Configuration         Coeff.   <S^2>
 -------------------------------------------------------------------
 -------------------------------------------------------------------
 State  45                      Configuration         Coeff.   <S^2>
 -------------------------------------------------------------------
 -------------------------------------------------------------------
 State  46                      Configuration         Coeff.   <S^2>
 -------------------------------------------------------------------
 -------------------------------------------------------------------
 State  47                      Configuration         Coeff.   <S^2>
 -------------------------------------------------------------------
 -------------------------------------------------------------------
 State  48                      Configuration         Coeff.   <S^2>
 -------------------------------------------------------------------
 -------------------------------------------------------------------
 State  49                      Configuration         Coeff.   <S^2>
 -------------------------------------------------------------------
 -------------------------------------------------------------------
 State  50                      Configuration         Coeff.   <S^2>
 -------------------------------------------------------------------
 -------------------------------------------------------------------
 State  51                      Configuration         Coeff.   <S^2>
 -------------------------------------------------------------------
 -------------------------------------------------------------------
 State  52                      Configuration         Coeff.   <S^2>
 -------------------------------------------------------------------
 -------------------------------------------------------------------
 State  53                      Configuration         Coeff.   <S^2>
 -------------------------------------------------------------------
 -------------------------------------------------------------------
 State  54                      Configuration         Coeff.   <S^2>
 -------------------------------------------------------------------
 -------------------------------------------------------------------
 State  55                      Configuration         Coeff.   <S^2>
 -------------------------------------------------------------------
 -------------------------------------------------------------------
 State  56                      Configuration         Coeff.   <S^2>
 -------------------------------------------------------------------
 -------------------------------------------------------------------
 State  57                      Configuration         Coeff.   <S^2>
 -------------------------------------------------------------------
 -------------------------------------------------------------------
 State  58                      Configuration         Coeff.   <S^2>
 -------------------------------------------------------------------
 -------------------------------------------------------------------
 State  59                      Configuration         Coeff.   <S^2>
 -------------------------------------------------------------------
 -------------------------------------------------------------------
 State  60                      Configuration         Coeff.   <S^2>
 -------------------------------------------------------------------
 -------------------------------------------------------------------
 State  61                      Configuration         Coeff.   <S^2>
 -------------------------------------------------------------------
 -------------------------------------------------------------------
 State  62                      Configuration         Coeff.   <S^2>
 -------------------------------------------------------------------
 -------------------------------------------------------------------
 State  63                      Configuration         Coeff.   <S^2>
 -------------------------------------------------------------------
 -------------------------------------------------------------------
 State  64                      Configuration         Coeff.   <S^2>
 -------------------------------------------------------------------
 -------------------------------------------------------------------
 State  65                      Configuration         Coeff.   <S^2>
 -------------------------------------------------------------------
 -------------------------------------------------------------------
 State  66                      Configuration         Coeff.   <S^2>
 -------------------------------------------------------------------
          1111111111111_11 | ____________1___       0.205002  56.000
          1111111111111_11 | ______________1_      -0.219029  56.000
          111111111_111111 | ________1_______      -0.219072  56.000
          111111111_111111 | ___________1____      -0.205043  56.000
[...]
    Closed-shell weight:   0.999105


 State: 237   Relative Energy:  33.3129 eV
    C  Sa: 7    --> Sa: 11      -0.15381319
    C  Sa: 15   --> Sa: 3        0.15377074
    C  Sa: 16   --> Sa: 11      -0.15002751
    C  Sa: 16   --> Sa: 12       0.15245877
    C  Sa: 18   --> Sa: 5       -0.15238525
    ------------------
    Open-shell weight:     0.000049
    Closed-shell weight:   0.999951


 State: 238   Relative Energy:  33.3764 eV
    ------------------
    Open-shell weight:     0.000431
    Closed-shell weight:   0.999569


 State: 239   Relative Energy:  33.4849 eV
    C  Sa: 6    --> Sa: 9       -0.16764083
    C  Sa: 6    --> Sa: 13       0.16618088
    C  Sa: 8    --> Sa: 9       -0.16612919
    C  Sa: 8    --> Sa: 13       0.16778190
    C  Sa: 9    --> Sa: 6        0.16765209
    C  Sa: 9    --> Sa: 8       -0.16620739
    C  Sa: 13   --> Sa: 6        0.16614387
    C  Sa: 13   --> Sa: 8       -0.16780884
    ------------------
    Open-shell weight:     0.000991
    Closed-shell weight:   0.999009


 State: 240   Relative Energy:  33.5377 eV
    C  Sa: 3    --> Sa: 9       -0.17235571
    C  Sa: 3    --> Sa: 13       0.15436564
    C  Sa: 5    --> Sa: 6        0.15387038
    C  Sa: 5    --> Sa: 8       -0.17169233
    C  Sa: 11   --> Sa: 6       -0.17240950
    C  Sa: 11   --> Sa: 8        0.15441636
    C  Sa: 12   --> Sa: 9       -0.15379559
    C  Sa: 12   --> Sa: 13       0.17160977
    ------------------
    Open-shell weight:     0.002925
    Closed-shell weight:   0.997075


 State: 241   Relative Energy:  33.8398 eV
    C  Sa: 6    --> Sa: 10      -0.16052925
    C  Sa: 6    --> Sa: 14       0.16585606
    C  Sa: 8    --> Sa: 10      -0.17154561
    C  Sa: 8    --> Sa: 14       0.15447154
    C  Sa: 9    --> Sa: 4       -0.16628027
    C  Sa: 9    --> Sa: 17      -0.16104683
    C  Sa: 13   --> Sa: 4       -0.15496751
    C  Sa: 13   --> Sa: 17      -0.17198947
    ------------------
    Open-shell weight:     0.000207
    Closed-shell weight:   0.999793


 State: 242   Relative Energy:  33.8472 eV
    ------------------
    Open-shell weight:     0.001761
    Closed-shell weight:   0.998239


 State: 243   Relative Energy:  33.8770 eV
    C  Sa: 6    --> Sa: 9        0.17020746
    C  Sa: 6    --> Sa: 13      -0.17033739
    C  Sa: 8    --> Sa: 9        0.16818631
    C  Sa: 8    --> Sa: 13      -0.17130561
    C  Sa: 9    --> Sa: 6        0.17020061
    C  Sa: 9    --> Sa: 8       -0.17035399
    C  Sa: 13   --> Sa: 6        0.16818374
    C  Sa: 13   --> Sa: 8       -0.17132647
    ------------------
    Open-shell weight:     0.000197
    Closed-shell weight:   0.999803


 State: 244   Relative Energy:  34.1230 eV
    ------------------
    Open-shell weight:     0.002748
    Closed-shell weight:   0.997252


 State: 245   Relative Energy:  34.3398 eV
    ------------------
    Open-shell weight:     0.002218
    Closed-shell weight:   0.997782


 State: 246   Relative Energy:  34.5242 eV
    C  Sa: 6    --> Sa: 9       -0.20093840
    C  Sa: 6    --> Sa: 13       0.20028073
    C  Sa: 8    --> Sa: 9       -0.20028136
    C  Sa: 8    --> Sa: 13       0.20085487
    C  Sa: 9    --> Sa: 6        0.20092417
    C  Sa: 9    --> Sa: 8       -0.20026658
    C  Sa: 13   --> Sa: 6        0.20026617
    C  Sa: 13   --> Sa: 8       -0.20083956
    ------------------
    Open-shell weight:     0.001550
    Closed-shell weight:   0.998450


 State: 247   Relative Energy:  34.8550 eV
    ------------------
    Open-shell weight:     0.004075
    Closed-shell weight:   0.995925


 State: 248   Relative Energy:  35.3648 eV
    C  Sa: 7    --> Sa: 4        0.16934995
    C  Sa: 7    --> Sa: 10       0.17270101
    C  Sa: 7    --> Sa: 11       0.16238115
    C  Sa: 7    --> Sa: 12       0.15767278
    C  Sa: 15   --> Sa: 3       -0.16243162
    C  Sa: 15   --> Sa: 5        0.15767089
    C  Sa: 15   --> Sa: 14       0.16935790
    C  Sa: 15   --> Sa: 17      -0.17274451
    C  Sa: 16   --> Sa: 4        0.17209394
    C  Sa: 16   --> Sa: 10       0.17014159
    C  Sa: 16   --> Sa: 11       0.15816926
    C  Sa: 16   --> Sa: 12       0.16204815
    C  Sa: 18   --> Sa: 3        0.15818729
    C  Sa: 18   --> Sa: 5       -0.16201439
    C  Sa: 18   --> Sa: 14      -0.17206747
    C  Sa: 18   --> Sa: 17       0.17015014
    ------------------
    Open-shell weight:     0.000570
    Closed-shell weight:   0.999430


 State: 249   Relative Energy:  35.3817 eV
    C  Sa: 3    --> Sa: 13       0.15298626
    C  Sa: 4    --> Sa: 9       -0.15694341
    C  Sa: 5    --> Sa: 6       -0.15363932
    C  Sa: 10   --> Sa: 8       -0.15668355
    C  Sa: 11   --> Sa: 8        0.15323226
    C  Sa: 12   --> Sa: 9        0.15347989
    C  Sa: 14   --> Sa: 6        0.15711984
    C  Sa: 17   --> Sa: 13      -0.15642648
    ------------------
    Open-shell weight:     0.000869
    Closed-shell weight:   0.999131


 State: 250   Relative Energy:  35.5435 eV
    C  Sa: 6    --> Sa: 5       -0.16024677
    C  Sa: 6    --> Sa: 9        0.15532544
    C  Sa: 6    --> Sa: 11      -0.16152455
    C  Sa: 6    --> Sa: 13      -0.15513493
    C  Sa: 8    --> Sa: 5       -0.16114602
    C  Sa: 8    --> Sa: 9        0.15509077
    C  Sa: 8    --> Sa: 11      -0.16058531
    C  Sa: 8    --> Sa: 13      -0.15528441
    C  Sa: 9    --> Sa: 3       -0.16370943
    C  Sa: 9    --> Sa: 6        0.15665563
    C  Sa: 9    --> Sa: 8       -0.15646340
    C  Sa: 9    --> Sa: 12       0.16243251
    C  Sa: 13   --> Sa: 3       -0.16277848
    C  Sa: 13   --> Sa: 6        0.15641836
    C  Sa: 13   --> Sa: 8       -0.15661489
    C  Sa: 13   --> Sa: 12       0.16332293
    ------------------
    Open-shell weight:     0.000974
    Closed-shell weight:   0.999026


 State: 251   Relative Energy:  35.5457 eV
    C  Sa: 6    --> Sa: 5       -0.15049016
    C  Sa: 6    --> Sa: 11      -0.15025383
    C  Sa: 8    --> Sa: 11      -0.15082749
    ------------------
    Open-shell weight:     0.000640
    Closed-shell weight:   0.999360


 State: 252   Relative Energy:  36.0713 eV
    ------------------
    Open-shell weight:     0.000566
    Closed-shell weight:   0.999434


 State: 253   Relative Energy:  36.1900 eV
    ------------------
    Open-shell weight:     0.001603
    Closed-shell weight:   0.998397


 State: 254   Relative Energy:  36.5557 eV
    ------------------
    Open-shell weight:     0.001634
    Closed-shell weight:   0.998366


 State: 255   Relative Energy:  37.1619 eV
    ------------------
    Open-shell weight:     0.003106
    Closed-shell weight:   0.996894


 Performing population analysis
 Mulliken Population Analysis of ROHF Active space
       Atom Z           1      2      3      4      5      6      7      8      9     10     11     12     13     14     15     16
          1 1       1.2061 -0.0000  0.0002  0.0001  0.0011 -0.0056  0.0000 -0.0000 -0.0000 -0.0075  0.0000  0.0012 -0.0000  0.0000 -0.1937 -0.0000
          2 1      -0.0000  0.0012 -0.0075  0.0000 -0.0000  0.0000  0.0001 -0.1937  1.2061  0.0002 -0.0056 -0.0000  0.0011 -0.0000 -0.0000  0.0000
          3 1       0.0012  1.2068 -0.0000  0.0013  0.0000  0.0000  0.0000 -0.0113 -0.0010 -0.1948 -0.0000  0.0000  0.0001  0.0000 -0.0001 -0.0041
          4 1      -0.0000  0.0000 -0.0057  0.0000 -0.0010 -0.0000  1.2034  0.0001  0.0013  0.0000 -0.1917  0.0000  0.0019 -0.0088 -0.0000  0.0003
          5 1       0.0001  0.0000  0.0000  0.0001  1.2057 -0.0082  0.0007 -0.0000  0.0000 -0.0000 -0.0000  0.0011  0.0004 -0.1942 -0.0040 -0.0016
          6 1      -0.0010  0.0000 -0.1948  0.0000  0.0001 -0.0000  0.0013 -0.0001  0.0012 -0.0000  0.0000  1.2068  0.0000 -0.0041 -0.0113  0.0000
          7 1       0.0000  0.0011 -0.0000  0.0007  0.0004 -0.0000  0.0001 -0.0040  0.0001  0.0000 -0.0082  0.0000  1.2057 -0.0016 -0.0000 -0.1942
          8 1       0.0013  0.0000  0.0000  1.2034  0.0019 -0.1917  0.0000 -0.0000 -0.0000 -0.0057 -0.0000  0.0000 -0.0010  0.0003  0.0001 -0.0088
          9 1      -0.0057  0.0001 -0.0000 -0.1917 -0.0087  1.2034 -0.0000  0.0000  0.0000  0.0013  0.0000 -0.0000  0.0003 -0.0009  0.0000  0.0019
         10 1      -0.0000 -0.0040  0.0000 -0.0083 -0.0016  0.0001 -0.0000  0.0010  0.0000  0.0001  0.0007 -0.0000 -0.1942  0.0004  0.0000  1.2058
         11 1      -0.0075 -0.1937 -0.0000 -0.0056 -0.0000  0.0001  0.0000  0.0012  0.0002  1.2061  0.0000 -0.0000  0.0000 -0.0000 -0.0000  0.0011
         12 1       0.0000 -0.0000  0.0013 -0.0000  0.0003  0.0000 -0.1917  0.0000 -0.0057 -0.0000  1.2034  0.0001 -0.0087  0.0019  0.0000 -0.0009
         13 1       0.0002 -0.0000  1.2061  0.0000  0.0000  0.0000 -0.0056 -0.0000 -0.0075 -0.0000  0.0001 -0.1937 -0.0000  0.0011  0.0012 -0.0000
         14 1      -0.1948 -0.0001 -0.0010  0.0000 -0.0041  0.0013 -0.0000  0.0000 -0.0000  0.0012  0.0000 -0.0113  0.0000  0.0001  1.2068  0.0000
         15 1       0.0000 -0.0000  0.0001 -0.0000 -0.1942  0.0007 -0.0083  0.0000 -0.0000  0.0000  0.0001 -0.0040 -0.0016  1.2058  0.0010  0.0004
         16 1      -0.0000 -0.0113  0.0012 -0.0000  0.0000  0.0000  0.0000  1.2068 -0.1948 -0.0010  0.0013 -0.0001 -0.0041  0.0000  0.0000  0.0001
         17 2       0.0000  0.0000  0.0000  0.0000  0.0000  0.0000  0.0000  0.0000  0.0000  0.0000  0.0000  0.0000  0.0000  0.0000  0.0000  0.0000
         18 2       0.0000  0.0000  0.0000  0.0000  0.0000  0.0000  0.0000  0.0000  0.0000  0.0000  0.0000  0.0000  0.0000  0.0000  0.0000  0.0000

 Primary Atoms
 MO   1 is on   1
 MO   2 is on   3
 MO   3 is on  13
 MO   4 is on   8
 MO   5 is on   5
 MO   6 is on   9
 MO   7 is on   4
 MO   8 is on  16
 MO   9 is on   2
 MO  10 is on  11
 MO  11 is on  12
 MO  12 is on   6
 MO  13 is on   7
 MO  14 is on  15
 MO  15 is on  14
 MO  16 is on  10
 Number of blocks found:   16
 Block    0 has     1 orbitals
 Block    1 has     1 orbitals
 Block    2 has     1 orbitals
 Block    3 has     1 orbitals
 Block    4 has     1 orbitals
 Block    5 has     1 orbitals
 Block    6 has     1 orbitals
 Block    7 has     1 orbitals
 Block    8 has     1 orbitals
 Block    9 has     1 orbitals
 Block   10 has     1 orbitals
 Block   11 has     1 orbitals
 Block   12 has     1 orbitals
 Block   13 has     1 orbitals
 Block   14 has     1 orbitals
 Block   15 has     1 orbitals

 State Energies
      1 =   0.00000000 cm-1
      2 = 1599.65184102 cm-1
      3 = 1901.00675960 cm-1
      4 = 1969.34401689 cm-1
      5 = 3177.62936125 cm-1
      6 = 3666.79861537 cm-1
      7 = 3834.11282119 cm-1
      8 = 4310.16254945 cm-1
      9 = 49931.41270194 cm-1
     10 = 51070.70312851 cm-1
     11 = 52233.04900570 cm-1
     12 = 52237.89591944 cm-1
     13 = 53944.40854109 cm-1
     14 = 53981.66010444 cm-1
     15 = 56180.30911805 cm-1
     16 = 58143.59854906 cm-1

 Projected eigenvectors
   0.1966   0.1920  -0.2364  -0.2680   0.1257   0.2862   0.1203  -0.0251  -0.3212  -0.0006   0.3171   0.0504   0.1393   0.2952  -0.2409  -0.0135
   0.1966   0.1919   0.2367   0.2677  -0.1259   0.2860  -0.1208  -0.0252  -0.3212  -0.0006  -0.3171  -0.0505  -0.1393  -0.2952  -0.2409  -0.0135
   0.2023   0.1947   0.2654  -0.2428  -0.1330  -0.2849   0.1199  -0.0349   0.3047   0.0249   0.2533   0.1197   0.1032  -0.3437  -0.2432  -0.0733
   0.1414  -0.0967  -0.0113   0.1648  -0.0079  -0.0043   0.3641   0.3622   0.0133  -0.3311   0.1614   0.0925  -0.4232   0.0190   0.2237  -0.0396
   0.2308  -0.2716  -0.1802  -0.0117  -0.3588   0.0038  -0.0140  -0.1726  -0.0148   0.3071  -0.1358   0.4210   0.0274   0.0398   0.2613  -0.0644
   0.2024   0.1953  -0.2652   0.2427   0.1331  -0.2849  -0.1193  -0.0349   0.3048   0.0249  -0.2533  -0.1197  -0.1032   0.3437  -0.2432  -0.0733
   0.2308  -0.2717   0.1800   0.0119   0.3588   0.0040   0.0141  -0.1727  -0.0148   0.3071   0.1358  -0.4210  -0.0275  -0.0398   0.2613  -0.0644
   0.1414  -0.0969   0.0113  -0.1648   0.0080  -0.0050  -0.3643   0.3620   0.0133  -0.3311  -0.1614  -0.0924   0.4232  -0.0190   0.2238  -0.0396
  -0.1413   0.0968   0.0057   0.1650   0.0050  -0.0053   0.3644  -0.3619  -0.0116  -0.3314  -0.1865  -0.0168   0.4222   0.0284   0.2233   0.0412
  -0.2309   0.2718  -0.1804   0.0076  -0.3590   0.0040   0.0102   0.1727   0.0130   0.3068   0.1414  -0.4185   0.0343  -0.0391   0.2606   0.0679
  -0.1967  -0.1916  -0.2445   0.2600   0.1281   0.2861  -0.1199   0.0245   0.3213   0.0012   0.2842   0.1501   0.1452  -0.2919  -0.2408   0.0111
  -0.1413   0.0967  -0.0057  -0.1651  -0.0051  -0.0060  -0.3641  -0.3621  -0.0116  -0.3315   0.1864   0.0169  -0.4222  -0.0284   0.2233   0.0412
  -0.1968  -0.1921   0.2444  -0.2599  -0.1282   0.2861   0.1194   0.0245   0.3213   0.0012  -0.2842  -0.1501  -0.1452   0.2919  -0.2408   0.0111
  -0.2022  -0.1952   0.2577   0.2515  -0.1308  -0.2850  -0.1203   0.0355  -0.3047   0.0231   0.2742   0.0558   0.0958   0.3459  -0.2441   0.0706
  -0.2309   0.2717   0.1806  -0.0078   0.3589   0.0041  -0.0103   0.1726   0.0130   0.3068  -0.1414   0.4184  -0.0343   0.0391   0.2606   0.0679
  -0.2021  -0.1951  -0.2580  -0.2512   0.1310  -0.2848   0.1208   0.0356  -0.3047   0.0231  -0.2743  -0.0558  -0.0958  -0.3459  -0.2441   0.0706


 Norms of projected eigenvectors (Projection #1 onto neutral determinant basis)
      State    0:   0.78196241
      State    1:   0.79509324
      State    2:   0.79721034
      State    3:   0.79504871
      State    4:   0.80595298
      State    5:   0.80762490
      State    6:   0.80415255
      State    7:   0.80681075
      State    8:   0.88636697
      State    9:   0.90451294
      State   10:   0.91646000
      State   11:   0.89855809
      State   12:   0.91607556
      State   13:   0.91044067
      State   14:   0.97041716
      State   15:   0.21300627

 Projected eigenvectors (local high-spin)
   0.1966   0.1920  -0.2364  -0.2680   0.1257   0.2862   0.1203  -0.0251  -0.3212  -0.0006   0.3171   0.0504   0.1393   0.2952  -0.2409  -0.0135
   0.1966   0.1919   0.2367   0.2677  -0.1259   0.2860  -0.1208  -0.0252  -0.3212  -0.0006  -0.3171  -0.0505  -0.1393  -0.2952  -0.2409  -0.0135
   0.2023   0.1947   0.2654  -0.2428  -0.1330  -0.2849   0.1199  -0.0349   0.3047   0.0249   0.2533   0.1197   0.1032  -0.3437  -0.2432  -0.0733
   0.1414  -0.0967  -0.0113   0.1648  -0.0079  -0.0043   0.3641   0.3622   0.0133  -0.3311   0.1614   0.0925  -0.4232   0.0190   0.2237  -0.0396
   0.2308  -0.2716  -0.1802  -0.0117  -0.3588   0.0038  -0.0140  -0.1726  -0.0148   0.3071  -0.1358   0.4210   0.0274   0.0398   0.2613  -0.0644
   0.2024   0.1953  -0.2652   0.2427   0.1331  -0.2849  -0.1193  -0.0349   0.3048   0.0249  -0.2533  -0.1197  -0.1032   0.3437  -0.2432  -0.0733
   0.2308  -0.2717   0.1800   0.0119   0.3588   0.0040   0.0141  -0.1727  -0.0148   0.3071   0.1358  -0.4210  -0.0275  -0.0398   0.2613  -0.0644
   0.1414  -0.0969   0.0113  -0.1648   0.0080  -0.0050  -0.3643   0.3620   0.0133  -0.3311  -0.1614  -0.0924   0.4232  -0.0190   0.2238  -0.0396
  -0.1413   0.0968   0.0057   0.1650   0.0050  -0.0053   0.3644  -0.3619  -0.0116  -0.3314  -0.1865  -0.0168   0.4222   0.0284   0.2233   0.0412
  -0.2309   0.2718  -0.1804   0.0076  -0.3590   0.0040   0.0102   0.1727   0.0130   0.3068   0.1414  -0.4185   0.0343  -0.0391   0.2606   0.0679
  -0.1967  -0.1916  -0.2445   0.2600   0.1281   0.2861  -0.1199   0.0245   0.3213   0.0012   0.2842   0.1501   0.1452  -0.2919  -0.2408   0.0111
  -0.1413   0.0967  -0.0057  -0.1651  -0.0051  -0.0060  -0.3641  -0.3621  -0.0116  -0.3315   0.1864   0.0169  -0.4222  -0.0284   0.2233   0.0412
  -0.1968  -0.1921   0.2444  -0.2599  -0.1282   0.2861   0.1194   0.0245   0.3213   0.0012  -0.2842  -0.1501  -0.1452   0.2919  -0.2408   0.0111
  -0.2022  -0.1952   0.2577   0.2515  -0.1308  -0.2850  -0.1203   0.0355  -0.3047   0.0231   0.2742   0.0558   0.0958   0.3459  -0.2441   0.0706
  -0.2309   0.2717   0.1806  -0.0078   0.3589   0.0041  -0.0103   0.1726   0.0130   0.3068  -0.1414   0.4184  -0.0343   0.0391   0.2606   0.0679
  -0.2021  -0.1951  -0.2580  -0.2512   0.1310  -0.2848   0.1208   0.0356  -0.3047   0.0231  -0.2743  -0.0558  -0.0958  -0.3459  -0.2441   0.0706


 Norms of projected eigenvectors (Projection #2 onto local high-spin states)
      State    0:   0.78196241
      State    1:   0.79509324
      State    2:   0.79721034
      State    3:   0.79504871
      State    4:   0.80595298
      State    5:   0.80762490
      State    6:   0.80415255
      State    7:   0.80681075
      State    8:   0.88636697
      State    9:   0.90451294
      State   10:   0.91646000
      State   11:   0.89855809
      State   12:   0.91607556
      State   13:   0.91044067
      State   14:   0.97041716
      State   15:   0.21300627

 Overlap of projected eigenvectors
   6.1147e-01   3.2189e-03  -1.4496e-06  -1.4002e-07  -5.1497e-07   4.7482e-06  -3.9177e-07  -2.7077e-03  -1.1945e-02   1.7482e-04   3.2272e-06   2.9829e-06   8.2667e-06   3.1694e-06   7.1231e-04  -1.5182e-01
   3.2189e-03   6.3217e-01  -9.3731e-07  -4.9551e-07   2.7374e-06   6.9829e-06  -2.1184e-06   9.5500e-04   1.4093e-03  -8.7487e-05   7.8404e-06   1.5227e-05   1.7647e-05   1.8013e-05  -1.0735e-04   2.1952e-02
  -1.4496e-06  -9.3731e-07   6.3554e-01   7.1354e-05  -1.1605e-03   1.2737e-06   7.2244e-05   4.3005e-07   5.0062e-07  -2.0833e-06  -2.1033e-02  -7.8497e-03  -4.0713e-02  -1.2241e-03   1.9501e-07  -1.3131e-05
  -1.4002e-07  -4.9551e-07   7.1354e-05   6.3210e-01  -1.2395e-05  -7.4011e-06  -4.6792e-03  -2.0572e-06  -3.7009e-07   4.9381e-06  -1.0140e-02   2.9452e-02  -1.3020e-03   4.4942e-02  -2.7383e-07   1.5612e-07
  -5.1497e-07   2.7374e-06  -1.1605e-03  -1.2395e-05   6.4956e-01  -1.4077e-07   3.0681e-05  -2.1465e-07   6.5242e-07   3.1398e-06   4.9186e-03   1.3631e-03  -1.3573e-02  -9.6651e-05  -4.6351e-07  -3.7944e-06
   4.7482e-06   6.9829e-06   1.2737e-06  -7.4011e-06  -1.4077e-07   6.5226e-01  -6.5891e-06  -6.6812e-06   4.8336e-05  -1.5369e-02  -6.7202e-06   3.1885e-05   1.3677e-06   1.6622e-05   1.6370e-03   1.1033e-04
  -3.9177e-07  -2.1184e-06   7.2244e-05  -4.6792e-03   3.0681e-05  -6.5891e-06   6.4666e-01  -1.1350e-06  -4.9840e-06   1.5897e-05  -8.6228e-03   2.6118e-02  -3.3275e-04   8.0501e-03  -1.6056e-06  -4.1985e-06
  -2.7077e-03   9.5500e-04   4.3005e-07  -2.0572e-06  -2.1465e-07  -6.6812e-06  -1.1350e-06   6.5094e-01   1.6516e-02   9.1657e-05  -2.2852e-06   8.5567e-06   2.2948e-06   4.0339e-06   4.6637e-06  -1.4654e-03
  -1.1945e-02   1.4093e-03   5.0062e-07  -3.7009e-07   6.5242e-07   4.8336e-05  -4.9840e-06   1.6516e-02   7.8565e-01  -2.6803e-07   1.1571e-06   1.0694e-06   1.9279e-06  -2.4818e-07   4.0067e-04  -7.0238e-02
   1.7482e-04  -8.7487e-05  -2.0833e-06   4.9381e-06   3.1398e-06  -1.5369e-02   1.5897e-05   9.1657e-05  -2.6803e-07   8.1814e-01   2.6460e-07  -2.7595e-06  -2.6923e-07  -2.4076e-06   4.5367e-04   6.7231e-04
   3.2272e-06   7.8404e-06  -2.1033e-02  -1.0140e-02   4.9186e-03  -6.7202e-06  -8.6228e-03  -2.2852e-06   1.1571e-06   2.6460e-07   8.3990e-01   1.1937e-02  -1.6101e-02   1.0657e-02  -3.3638e-08   2.3694e-06
   2.9829e-06   1.5227e-05  -7.8497e-03   2.9452e-02   1.3631e-03   3.1885e-05   2.6118e-02   8.5567e-06   1.0694e-06  -2.7595e-06   1.1937e-02   8.0741e-01  -4.9940e-03  -3.2765e-02  -2.6883e-07   4.2371e-06
   8.2667e-06   1.7647e-05  -4.0713e-02  -1.3020e-03  -1.3573e-02   1.3677e-06  -3.3275e-04   2.2948e-06   1.9279e-06  -2.6923e-07  -1.6101e-02  -4.9940e-03   8.3919e-01   2.3797e-04  -3.3360e-07   1.1030e-05
   3.1694e-06   1.8013e-05  -1.2241e-03   4.4942e-02  -9.6651e-05   1.6622e-05   8.0501e-03   4.0339e-06  -2.4818e-07  -2.4076e-06   1.0657e-02  -3.2765e-02   2.3797e-04   8.2890e-01   2.8893e-07   3.4764e-06
   7.1231e-04  -1.0735e-04   1.9501e-07  -2.7383e-07  -4.6351e-07   1.6370e-03  -1.6056e-06   4.6637e-06   4.0067e-04   4.5367e-04  -3.3638e-08  -2.6883e-07  -3.3360e-07   2.8893e-07   9.4171e-01   4.6403e-03
  -1.5182e-01   2.1952e-02  -1.3131e-05   1.5612e-07  -3.7944e-06   1.1033e-04  -4.1985e-06  -1.4654e-03  -7.0238e-02   6.7231e-04   2.3694e-06   4.2371e-06   1.1030e-05   3.4764e-06   4.6403e-03   4.5372e-02

