16
	Energy:      -9.5555551
O         -1.35569       -1.80983        3.75815
O         -0.21050       -0.95599        1.07406
O         -0.64487        1.92490        0.01949
O          2.44739       -1.64714        0.03447
O         -1.15500       -4.30075        1.69614
O          1.75593       -0.96257        3.24722
O         -0.08158       -1.04594       -2.01701
O         -2.48485       -2.69945       -0.63340
H         -2.63451       -3.60930       -0.40283
H         -0.94008       -0.81546       -1.67989
H          2.16541       -1.29874       -0.80368
H          2.33909       -0.88649        2.50060
H         -0.81724       -1.02873        3.81709
H         -1.25493       -4.16383        2.63147
H         -0.24674       -1.90313        0.99641
H         -0.05628        1.59687        0.68942
