Jobname.Temp
SP        RO                            6-31G(d)            
Number of atoms                            I               18
Charge                                     I                0
Multiplicity                               I               17
Number of electrons                        I               20
Number of alpha electrons                  I               18
Number of beta electrons                   I                2
Atomic numbers                             I   N=          18
           1           1           1           1           1           1
           1           1           1           1           1           1
           1           1           1           1           2           2
Current cartesian coordinates              R   N=          54
 -1.39563833E+00 -1.02168043E+00  1.62062912E-01 -4.37169242E+00 -1.92275854E+00
 -1.26643776E+00 -3.96052581E+00  1.23869658E+00 -2.16562614E-02 -4.17712622E+00
 -1.42555270E+00  2.11639877E+00  2.79063416E+00  5.80529535E+00  1.85722284E-01
  3.18418852E-01  6.91681336E+00  2.27798925E+00  3.45574216E-01  3.65624211E+00
  1.24094535E+00 -4.09806007E-01  6.15158766E+00 -9.77800989E-01  6.59230959E+00
 -1.65451191E+00 -1.14970937E-01  4.33973715E+00  9.17991157E-01 -3.60937690E-03
  3.66531279E+00 -2.01588424E+00  1.62501329E+00  3.62048849E+00 -1.90796198E+00
 -1.79565556E+00  2.47612704E+00  2.21757471E+00 -4.75997444E+00  9.82090667E-02
  2.93580292E+00 -7.11542357E+00 -8.40285619E-01  2.16131756E+00 -3.91902742E+00
  4.45805290E-01 -2.67660808E-01 -5.95530181E+00  1.88972612E+01  1.88972612E+01
  1.88972612E+01 -1.88972612E+01  1.88972612E+01  1.88972612E+01
Nuclear charges                            R   N=          18
  1.00000000E+00  1.00000000E+00  1.00000000E+00  1.00000000E+00  1.00000000E+00
  1.00000000E+00  1.00000000E+00  1.00000000E+00  1.00000000E+00  1.00000000E+00
  1.00000000E+00  1.00000000E+00  1.00000000E+00  1.00000000E+00  1.00000000E+00
  1.00000000E+00  2.00000000E+00  2.00000000E+00
Number of basis functions                  I               36
Number of contracted shells                I               36
Number of primitive shells                 I               72
Highest angular momentum                   I                0
Largest degree of contraction              I                3
Shell types                                I   N=          36
           0           0           0           0           0           0
           0           0           0           0           0           0
           0           0           0           0           0           0
           0           0           0           0           0           0
           0           0           0           0           0           0
           0           0           0           0           0           0
Number of primitives per shell             I   N=          36
           3           1           3           1           3           1
           3           1           3           1           3           1
           3           1           3           1           3           1
           3           1           3           1           3           1
           3           1           3           1           3           1
           3           1           3           1           3           1
Shell to atom map                          I   N=          36
           1           1           2           2           3           3
           4           4           5           5           6           6
           7           7           8           8           9           9
          10          10          11          11          12          12
          13          13          14          14          15          15
          16          16          17          17          18          18
Primitive exponents                        R   N=          72
  1.87311370E+01  2.82539370E+00  6.40121700E-01  1.61277800E-01  1.87311370E+01
  2.82539370E+00  6.40121700E-01  1.61277800E-01  1.87311370E+01  2.82539370E+00
  6.40121700E-01  1.61277800E-01  1.87311370E+01  2.82539370E+00  6.40121700E-01
  1.61277800E-01  1.87311370E+01  2.82539370E+00  6.40121700E-01  1.61277800E-01
  1.87311370E+01  2.82539370E+00  6.40121700E-01  1.61277800E-01  1.87311370E+01
  2.82539370E+00  6.40121700E-01  1.61277800E-01  1.87311370E+01  2.82539370E+00
  6.40121700E-01  1.61277800E-01  1.87311370E+01  2.82539370E+00  6.40121700E-01
  1.61277800E-01  1.87311370E+01  2.82539370E+00  6.40121700E-01  1.61277800E-01
  1.87311370E+01  2.82539370E+00  6.40121700E-01  1.61277800E-01  1.87311370E+01
  2.82539370E+00  6.40121700E-01  1.61277800E-01  1.87311370E+01  2.82539370E+00
  6.40121700E-01  1.61277800E-01  1.87311370E+01  2.82539370E+00  6.40121700E-01
  1.61277800E-01  1.87311370E+01  2.82539370E+00  6.40121700E-01  1.61277800E-01
  1.87311370E+01  2.82539370E+00  6.40121700E-01  1.61277800E-01  3.84216340E+01
  5.77803000E+00  1.24177400E+00  2.97964000E-01  3.84216340E+01  5.77803000E+00
  1.24177400E+00  2.97964000E-01
Contraction coefficients                   R   N=          72
  3.34945995E-02  2.34726947E-01  8.13757318E-01  1.00000000E+00  3.34945995E-02
  2.34726947E-01  8.13757318E-01  1.00000000E+00  3.34945995E-02  2.34726947E-01
  8.13757318E-01  1.00000000E+00  3.34945995E-02  2.34726947E-01  8.13757318E-01
  1.00000000E+00  3.34945995E-02  2.34726947E-01  8.13757318E-01  1.00000000E+00
  3.34945995E-02  2.34726947E-01  8.13757318E-01  1.00000000E+00  3.34945995E-02
  2.34726947E-01  8.13757318E-01  1.00000000E+00  3.34945995E-02  2.34726947E-01
  8.13757318E-01  1.00000000E+00  3.34945995E-02  2.34726947E-01  8.13757318E-01
  1.00000000E+00  3.34945995E-02  2.34726947E-01  8.13757318E-01  1.00000000E+00
  3.34945995E-02  2.34726947E-01  8.13757318E-01  1.00000000E+00  3.34945995E-02
  2.34726947E-01  8.13757318E-01  1.00000000E+00  3.34945995E-02  2.34726947E-01
  8.13757318E-01  1.00000000E+00  3.34945995E-02  2.34726947E-01  8.13757318E-01
  1.00000000E+00  3.34945995E-02  2.34726947E-01  8.13757318E-01  1.00000000E+00
  3.34945995E-02  2.34726947E-01  8.13757318E-01  1.00000000E+00  4.01397393E-02
  2.61246097E-01  7.93184625E-01  1.00000000E+00  4.01397393E-02  2.61246097E-01
  7.93184625E-01  1.00000000E+00
Coordinates of each shell                  R   N=         108
 -1.39563833E+00 -1.02168043E+00  1.62062912E-01 -1.39563833E+00 -1.02168043E+00
  1.62062912E-01 -4.37169242E+00 -1.92275854E+00 -1.26643776E+00 -4.37169242E+00
 -1.92275854E+00 -1.26643776E+00 -3.96052581E+00  1.23869658E+00 -2.16562614E-02
 -3.96052581E+00  1.23869658E+00 -2.16562614E-02 -4.17712622E+00 -1.42555270E+00
  2.11639877E+00 -4.17712622E+00 -1.42555270E+00  2.11639877E+00  2.79063416E+00
  5.80529535E+00  1.85722284E-01  2.79063416E+00  5.80529535E+00  1.85722284E-01
  3.18418852E-01  6.91681336E+00  2.27798925E+00  3.18418852E-01  6.91681336E+00
  2.27798925E+00  3.45574216E-01  3.65624211E+00  1.24094535E+00  3.45574216E-01
  3.65624211E+00  1.24094535E+00 -4.09806007E-01  6.15158766E+00 -9.77800989E-01
 -4.09806007E-01  6.15158766E+00 -9.77800989E-01  6.59230959E+00 -1.65451191E+00
 -1.14970937E-01  6.59230959E+00 -1.65451191E+00 -1.14970937E-01  4.33973715E+00
  9.17991157E-01 -3.60937690E-03  4.33973715E+00  9.17991157E-01 -3.60937690E-03
  3.66531279E+00 -2.01588424E+00  1.62501329E+00  3.66531279E+00 -2.01588424E+00
  1.62501329E+00  3.62048849E+00 -1.90796198E+00 -1.79565556E+00  3.62048849E+00
 -1.90796198E+00 -1.79565556E+00  2.47612704E+00  2.21757471E+00 -4.75997444E+00
  2.47612704E+00  2.21757471E+00 -4.75997444E+00  9.82090667E-02  2.93580292E+00
 -7.11542357E+00  9.82090667E-02  2.93580292E+00 -7.11542357E+00 -8.40285619E-01
  2.16131756E+00 -3.91902742E+00 -8.40285619E-01  2.16131756E+00 -3.91902742E+00
  4.45805290E-01 -2.67660808E-01 -5.95530181E+00  4.45805290E-01 -2.67660808E-01
 -5.95530181E+00  1.88972612E+01  1.88972612E+01  1.88972612E+01  1.88972612E+01
  1.88972612E+01  1.88972612E+01 -1.88972612E+01  1.88972612E+01  1.88972612E+01
 -1.88972612E+01  1.88972612E+01  1.88972612E+01
SCF Energy                                 R     -1.338281414832161E+01
Number of independent functions            I               36
Alpha MO coefficients                      R   N=        1296
 -1.00908726E-21  2.14326229E-21  1.19253961E-21 -1.67170610E-21  1.65479404E-21
 -3.01869450E-21  4.87944593E-22 -3.86716705E-22 -6.24014240E-22  8.83430116E-22
  8.82276985E-22 -7.73194665E-22 -1.45587995E-21  1.92823068E-21  2.07111591E-21
 -1.97466079E-21 -2.40357667E-21  3.30854769E-21 -1.92135781E-22 -3.62590552E-22
  1.10480808E-21 -6.27386827E-22 -1.96381052E-22 -4.70407318E-22 -1.92113617E-22
  3.40244955E-22  2.20062125E-22 -1.39922022E-21  6.26620934E-22 -1.19117165E-21
 -3.33039923E-21  3.92332903E-21 -5.92081261E-01 -5.13586011E-01 -1.07602162E-22
  1.11059952E-22  7.43204674E-19  2.92544546E-16  3.46960321E-17 -1.72698505E-16
  5.90718907E-17  1.83035211E-16 -1.93955978E-16  1.46036528E-19  2.10341324E-18
  9.69349832E-17 -3.18524198E-17 -1.83452046E-16  2.29210986E-16  1.85344334E-16
  6.24957456E-17  1.42117940E-16 -1.18067885E-16 -6.40290313E-17 -2.40919235E-18
 -1.72987151E-16  1.47451368E-16  1.14434903E-16  1.03969278E-16 -2.60424290E-17
  2.29216244E-16  1.72441453E-17  5.63817173E-17 -1.79605987E-16  1.49842040E-16
  1.63218786E-16  1.46576383E-16  1.76205170E-16 -5.04296517E-17  5.20586005E-17
 -5.92081261E-01 -5.13586011E-01  7.04288521E-03  4.27116748E-03 -7.12960413E-04
 -5.40539649E-04 -1.21288140E-03 -3.03171575E-04 -6.98324389E-04 -5.58237237E-04
  2.27265455E-03  2.93071379E-03 -1.04586492E-03 -9.10802531E-04  4.33178243E-03
  3.29189863E-03 -7.42318517E-04 -9.20876956E-04  4.43838295E-01  7.24341554E-01
 -1.75272018E-02 -9.09381752E-02 -1.66184519E-02 -8.96895094E-02 -1.70835351E-02
 -9.00951328E-02  2.76470307E-03  4.84832600E-03 -1.30466145E-03 -7.51695617E-04
  1.21215298E-03 -8.34206725E-04  2.13531419E-03  1.18418857E-03 -3.83045931E-17
 -3.32263567E-17 -5.39165502E-17 -4.68034896E-17  1.74723407E-02  9.06814258E-02
  1.60650717E-02  8.96109199E-02  1.73894123E-02  9.04957028E-02 -4.43742950E-01
 -7.24375843E-01  4.63510127E-04  7.78786288E-04  2.63302689E-04  8.50461533E-04
 -1.46324985E-03 -5.44351152E-03 -9.92376331E-04  3.01205056E-04  8.25263116E-04
  6.21773283E-04 -9.14132659E-04  3.11305189E-04 -3.57426557E-04 -2.54603804E-03
 -2.53146363E-03 -1.48013077E-03  8.70812169E-04  6.09802769E-04  1.58218656E-03
  4.68427744E-04 -7.53549964E-03 -6.15469326E-03 -1.68349474E-03  1.04650879E-03
  3.90576896E-17  3.38796113E-17 -1.10957480E-16 -9.62823812E-17 -2.75229378E-03
 -2.85017981E-03  1.07942891E-03  8.45042572E-04 -1.46722776E-03 -3.35132248E-03
  1.59647304E-04  1.02931455E-03  1.67954371E-02  8.98819366E-02 -4.43880388E-01
 -7.24470961E-01  1.80152413E-02  9.10962814E-02  1.68089282E-02  9.03231730E-02
  1.08850664E-03  7.86925574E-04 -5.61388615E-03 -6.94407523E-03 -1.94213283E-04
  9.06076718E-04  5.29951163E-04  9.35453358E-04 -3.45176439E-03  1.09502882E-04
  3.76114834E-04  8.85363767E-04 -5.84097782E-03 -5.24384998E-03  1.71564349E-03
  3.53746913E-04 -1.03409755E-16 -8.97001930E-17 -9.13718699E-17 -7.92651904E-17
 -3.98535714E-03 -2.18192275E-03 -1.46609479E-03  4.40210198E-04 -2.19957927E-03
 -3.20719680E-03  1.64763620E-03  5.77051893E-04 -1.13998703E-03 -6.30320153E-06
  7.97949156E-04  7.27707284E-04 -2.34184705E-03 -1.28117386E-03  1.11361965E-04
 -3.09783883E-03  1.11802966E-03  8.47464009E-04 -3.50012165E-03 -1.90162920E-03
  1.70414065E-03  5.67046313E-04 -6.19244159E-03 -4.02541004E-03  1.70966338E-02
  9.00716305E-02 -4.43795610E-01 -7.24373433E-01  1.71534926E-02  9.11652329E-02
  1.65223737E-02  8.95392880E-02  3.83699066E-17  3.32830112E-17 -2.63308417E-18
 -2.27640142E-18  1.94802926E-03  4.72755399E-03  6.48601491E-04 -7.27331696E-05
 -4.04362923E-03 -2.96580290E-03  7.77627773E-04 -3.82694434E-04 -1.66586331E-02
 -9.02246927E-02 -1.59421067E-02 -9.00310451E-02 -1.59022912E-02 -9.02620288E-02
  4.44718976E-01  7.26208656E-01 -8.53472890E-04 -7.37611728E-04  4.26761234E-03
  6.31573989E-03  4.68700449E-04 -9.63872974E-04 -3.49954062E-04 -7.62067084E-04
 -3.18951061E-03 -8.91529711E-04 -1.68888903E-03  4.95799942E-03 -1.14161540E-02
 -3.18031572E-02  3.28845901E-03  5.35802715E-03  1.04070927E-16  9.02737099E-17
 -1.97665083E-17 -1.71385696E-17  1.91510603E-03  3.03498577E-03 -1.41040514E-03
 -6.40768568E-04  4.55189792E-03  2.85017827E-03 -1.87861438E-04 -1.01510774E-03
  4.44722218E-01  7.25175349E-01 -1.60956269E-02 -8.97492473E-02 -1.58419240E-02
 -8.97623401E-02 -1.66582373E-02 -9.00499511E-02  1.12686253E-03  3.80493583E-03
 -1.08962208E-02 -2.52575414E-02  1.55383989E-03  3.70643355E-03  1.38767530E-03
  3.61720096E-03 -5.34317572E-03 -6.75897600E-03  5.10924300E-04  6.77879031E-04
  8.56992135E-04  3.91657211E-03  5.66551256E-04  4.05066749E-04  2.71247516E-17
  2.35286841E-17 -1.05226538E-16 -9.12719276E-17  8.86846269E-03  2.01715740E-02
 -1.43857299E-03 -2.79977639E-03 -1.42486752E-03 -2.60169731E-03  6.29135577E-04
 -3.52555981E-03 -2.27991722E-03 -3.38870191E-03  1.88616552E-04  7.94056909E-04
  2.09036425E-03 -1.41819328E-03 -1.29457871E-04  8.69791569E-04  1.61315324E-02
  8.95655523E-02  1.65769774E-02  9.06814309E-02 -4.44099821E-01 -7.25055684E-01
  1.59880584E-02  9.00504420E-02 -5.14210420E-03 -4.61547612E-03  1.73443225E-03
  6.36163786E-04 -8.88088111E-04  1.31627965E-04 -1.97484351E-03 -1.11234408E-03
  6.72376085E-17  5.83235738E-17  1.24270024E-16  1.07827728E-16 -7.92167586E-03
 -1.72094344E-02 -2.11625925E-04  2.92878284E-03  7.19374140E-04  2.35776552E-03
  1.58493796E-03  2.24441118E-03  2.43574262E-03  3.04897619E-03 -6.29794989E-04
 -1.01868840E-03  1.55549816E-03  3.27510330E-03 -3.74591923E-04 -9.10381193E-04
 -1.60665893E-02 -9.00001568E-02 -1.57962745E-02 -8.99448417E-02 -1.54361428E-02
 -8.98084622E-02  4.45003723E-01  7.25931633E-01 -8.43585860E-03 -1.98663416E-02
  3.91077973E-03  6.05679569E-03 -1.68967384E-03  2.49477597E-03 -9.39380287E-03
 -1.37305265E-02 -1.35288363E-16 -1.17352490E-16 -1.66036696E-16 -1.44059210E-16
 -1.11598411E-02 -2.40712780E-02  4.19610204E-03  8.13098972E-03 -9.70580403E-03
 -2.45130350E-02 -5.22001427E-04  7.33586153E-03 -1.48524593E-02 -8.94821988E-02
 -1.61624655E-02 -9.04033858E-02  4.46520475E-01  7.28469154E-01 -1.50062348E-02
 -8.97737811E-02  2.69743729E-03  4.54472497E-03 -1.04717324E-02 -3.01538675E-02
 -3.12302194E-03  2.48914840E-03  1.18496204E-04  4.55541810E-03 -8.65569017E-04
 -1.82613579E-05  1.70887247E-03  1.99165153E-03 -5.25038995E-03 -1.20265632E-02
  5.42868213E-04  2.39529088E-03  6.58095197E-17  5.70848140E-17 -2.22402638E-16
 -1.92909051E-16 -1.72345482E-02 -9.05250058E-02  4.43635511E-01  7.24469526E-01
 -1.68113354E-02 -9.02062952E-02 -1.58885523E-02 -8.97569586E-02 -1.30518097E-03
 -5.92023684E-04 -8.07225472E-04 -8.87487040E-04  6.65230210E-03  6.12011573E-03
  1.24878191E-03 -4.16111501E-04 -8.43420327E-04 -6.44818965E-04  6.28368422E-04
 -6.38963755E-05  2.43258322E-03  1.94745885E-03  7.10342891E-04  1.94390567E-03
  1.27787861E-03  1.34413103E-04  4.64802627E-04  5.78934945E-04 -2.70503272E-03
 -1.66409524E-03 -3.26787151E-03 -6.42980848E-04 -2.85474851E-17 -2.47627985E-17
 -1.27256330E-16 -1.10350084E-16 -2.85302052E-03 -1.34386276E-03 -3.24153937E-03
 -8.69991337E-04  1.73872345E-03  3.98657178E-03  6.45420675E-04 -5.41478296E-04
  1.56732901E-03 -4.58167316E-04 -1.77464432E-03 -3.63270747E-04  1.53360374E-03
  1.13699934E-03  5.24828298E-03  3.68523411E-03  1.17325726E-03  1.94130412E-03
  2.00746933E-03  4.59179320E-03  8.59293280E-04  2.04228096E-03 -8.46830825E-03
 -1.62249926E-02 -1.58025590E-02 -8.94551274E-02 -1.61390998E-02 -8.95243036E-02
 -1.71276442E-02 -9.08680934E-02  4.44202739E-01  7.24533051E-01 -2.52343725E-17
 -2.18889222E-17 -1.01234231E-16 -8.78216022E-17  4.46118231E-01  7.27144658E-01
 -1.59417368E-02 -9.02943963E-02 -1.43132373E-02 -8.83069400E-02 -1.59299563E-02
 -9.04745459E-02  7.95998664E-04  3.88904812E-03  1.78807163E-03  3.48182244E-03
 -1.01780848E-02 -2.66420932E-02  1.32781865E-03  5.07504328E-03  4.57800088E-03
  6.09950701E-03 -3.81379559E-03 -5.26272322E-04 -9.67740277E-03 -1.73707014E-02
 -9.02331689E-03 -1.44632085E-02 -8.71077382E-04  3.63501325E-03  2.42442287E-03
  3.65223799E-03 -7.60309341E-03 -2.15112161E-02 -3.31877202E-03 -4.92283108E-04
 -8.69358856E-17 -7.54103492E-17 -1.31272212E-16 -1.13837022E-16 -4.58541320E-04
 -1.94881183E-03 -2.07309495E-03  5.33309131E-04 -2.39722056E-03 -3.25919810E-03
  1.12103550E-03  6.41673203E-04  5.71939638E-03  5.89459844E-03 -1.90749458E-03
 -1.06003910E-03  1.45014242E-03 -6.32448204E-04  2.62982164E-03  9.62201875E-04
 -7.78350551E-04 -7.05179181E-03  9.82528474E-03  2.03091219E-02 -2.95703398E-03
 -6.67758595E-03  8.26664656E-03  2.06172070E-02 -4.44953392E-01 -7.25976389E-01
  1.61291692E-02  8.98800512E-02  1.61759126E-02  9.05571895E-02  1.53502546E-02
  8.95923922E-02  6.21695176E-17  5.39273857E-17  4.32201685E-17  3.75019381E-17
 -8.36833292E-03 -1.97626632E-02 -4.01900885E-03  1.21319995E-04 -1.04998923E-02
 -2.41889413E-02  4.84196324E-03  8.58182395E-03 -2.34425248E-04  5.12290934E-03
  3.59456684E-03  7.46839014E-03 -6.22052891E-03 -1.05046519E-02 -1.09731585E-02
 -3.15239354E-02  6.47220578E-04 -4.10599565E-04 -1.65194726E-03  3.01980994E-04
  2.29164194E-04  6.90776118E-04 -7.61066107E-05  6.38729325E-04 -1.57304510E-02
 -9.04294002E-02 -1.56462167E-02 -9.08475193E-02  4.46794396E-01  7.28661694E-01
 -1.60815132E-02 -9.02656165E-02 -8.68476168E-17 -7.53337827E-17 -3.00549891E-16
 -2.60706792E-16 -1.87308978E-03 -3.20755829E-03  3.21831023E-04  2.49669576E-04
  5.61383725E-04  1.76956534E-03  5.85783974E-04  2.13105801E-04 -1.15925495E-02
 -2.29417077E-02  3.27876790E-03  8.71445845E-03 -1.12745005E-02 -2.89452498E-02
  2.00415323E-03  8.08544679E-03 -1.60944604E-02 -9.03336658E-02  4.46600990E-01
  7.27408821E-01 -1.57644904E-02 -9.02265739E-02 -1.54648768E-02 -8.95222141E-02
 -9.24528290E-03 -2.15832639E-02  1.94363016E-03  3.11406807E-03 -2.49598890E-03
  8.92588830E-04  1.60075242E-03  5.00943635E-03 -5.03558423E-17 -4.36799099E-17
 -7.96695960E-17 -6.91417032E-17  1.46363773E-02  8.85991448E-02  1.58623797E-02
  9.02586298E-02 -4.45122795E-01 -7.26703479E-01  1.62008478E-02  9.01720164E-02
 -2.88070325E-03 -4.13899306E-03 -1.78089700E-05 -4.83409049E-03  9.32467968E-03
  2.54307658E-02  5.17351693E-03  1.34111948E-03  1.20975469E-03  5.87721872E-04
 -1.00119297E-03 -1.19852204E-03 -2.57013318E-03 -1.70346343E-03 -1.79335795E-03
 -1.37410367E-03 -1.44453944E-03 -3.98904662E-03 -1.05390699E-03 -4.28296010E-03
  9.82256209E-03  2.77343670E-02 -1.56825101E-03 -3.94602985E-03  6.19352297E-17
  5.37241585E-17  1.11531297E-16  9.67088277E-17  5.51122663E-01 -5.15860613E-01
 -1.43176597E-01  1.96167792E-01  1.64173592E-01 -9.81085036E-02 -2.13250306E-01
  2.69318477E-01  1.03932142E-01 -5.63226746E-02 -3.05430598E-01  3.71322536E-01
  5.26962482E-01 -4.75294179E-01  5.09431617E-02  6.24921999E-03 -3.45951166E-01
  4.27449443E-01  4.16031440E-01 -3.61201797E-01  1.11395257E-01 -5.50582757E-02
  2.57326923E-01 -2.07773862E-01  2.66361800E-01 -2.24191733E-01 -3.16462665E-01
  3.89591788E-01  4.07534792E-01 -3.63148473E-01  2.16776744E-02  2.56728692E-02
  5.07954366E-16 -5.24694219E-16 -3.08389650E-16  2.99948151E-16 -6.33989915E-03
  6.40880011E-02 -5.80490345E-02  9.57382697E-02  5.25840476E-01 -5.25401223E-01
 -2.08777800E-01  2.59241358E-01 -5.22466871E-01  5.69228367E-01 -3.13469030E-03
  6.84724200E-03  1.72561297E-01 -1.73907955E-01  4.05446922E-01 -4.19741037E-01
  1.46620185E-01 -1.84549964E-01 -3.72989448E-01  3.60621520E-01  1.94990319E-01
 -2.40712639E-01 -1.77614277E-01  1.51680371E-01 -4.68270318E-01  4.94653199E-01
  1.20906278E-01 -1.44780051E-01  4.80878715E-01 -4.95946037E-01 -1.71413089E-01
  1.78814927E-01  5.52444749E-16 -5.27476861E-16  3.14537349E-16 -3.55076761E-16
  4.20597255E-01 -4.38717739E-01  7.31172219E-02 -6.60589037E-02 -2.62349311E-01
  3.05374631E-01 -9.38937007E-02  1.24527500E-01 -3.53389189E-01  3.32868845E-01
  3.00416894E-01 -3.76797801E-01 -2.66169059E-02 -3.50942022E-02 -2.57934423E-01
  2.37937281E-01 -1.92488390E-01  2.35125742E-01 -4.17953323E-01  4.64032899E-01
  2.67596221E-01 -2.67560772E-01  4.76492334E-01 -5.03201832E-01 -2.99436854E-01
  3.40043435E-01 -1.31019925E-01  1.50293236E-01 -1.41728787E-01  1.52580230E-01
  5.94847900E-01 -6.52673592E-01  1.73663340E-16 -1.71794320E-16 -8.81571093E-16
  8.02545593E-16 -2.35747198E-01  2.62535001E-01  4.47651632E-01 -5.04672165E-01
  1.64538643E-01 -1.85401389E-01 -3.41254275E-01  4.00031376E-01  6.05173223E-02
 -6.93732923E-02 -3.44881921E-02  4.22948528E-02 -3.39917897E-01  3.90391566E-01
  3.45971871E-01 -3.75909349E-01  1.64121515E-01 -1.95341283E-01 -1.00643724E-01
  9.30461827E-02 -5.90224196E-01  6.61224973E-01  4.61747778E-01 -5.30223433E-01
  1.89955167E-01 -1.50084713E-01 -3.71584719E-01  4.73116179E-01  2.75713775E-01
 -2.53058956E-01  2.77517483E-01 -2.58352808E-01  8.29917662E-16 -8.62456398E-16
 -5.78105631E-16  5.16405764E-16  9.94979630E-02 -1.01407929E-01  7.36061991E-01
 -8.53514728E-01 -2.70169696E-01  3.35500109E-01 -4.86825065E-01  5.81420988E-01
  3.67946718E-01 -4.38591015E-01 -1.05079087E-01  1.10006609E-01 -1.32240349E-01
  1.51954035E-01 -1.92066556E-01  2.27216396E-01 -9.51255937E-02  1.06191932E-01
  1.81030202E-01 -2.23808786E-01  2.78743186E-01 -3.30419768E-01 -4.20998006E-01
  4.73558594E-01 -4.06661424E-01  4.71603398E-01  9.39412261E-02 -1.07669126E-01
  2.66457471E-01 -3.34955676E-01  2.12100281E-02 -3.54095779E-02  6.98043499E-16
 -7.39350197E-16 -6.06810536E-16  7.12715240E-16 -2.37088420E-01  3.05648751E-01
  1.83451412E-02 -6.94857536E-03  4.36097422E-01 -4.81246282E-01 -8.78071484E-02
  1.19731718E-01 -7.14014628E-02  1.04003793E-01  3.20912359E-01 -3.75826911E-01
  4.86858674E-01 -5.45827665E-01 -6.66181956E-01  7.94462002E-01  2.45236963E-01
 -2.99852743E-01  2.83437418E-01 -3.32641479E-01 -3.88315435E-01  4.40805398E-01
 -2.11536779E-01  2.30640531E-01 -2.69594342E-01  2.79251560E-01 -2.50195844E-01
  2.57825641E-01 -6.90272958E-02  2.23510017E-02  3.00667322E-01 -4.03083080E-01
  1.88698016E-16 -1.83996021E-16  4.00943467E-17  2.09515752E-18 -6.09512311E-03
 -5.52630789E-02  9.82847302E-02 -1.77026815E-01  7.85803997E-02 -1.65562992E-01
 -5.62194127E-01  6.25594748E-01 -1.79943951E-01  3.13335112E-01  8.34434522E-01
 -9.26105686E-01 -1.09968086E-02  1.14394624E-01 -5.41817245E-02  1.50567621E-01
 -2.75505199E-01  3.21604869E-01  6.34972476E-02 -8.95250258E-02  5.65006046E-02
 -7.91011737E-02  8.06149251E-02 -1.03472121E-01  4.48767551E-01 -5.42076315E-01
  1.64903000E-01 -2.00863304E-01 -9.84713036E-02  1.19434530E-01 -5.13809829E-01
  6.26039340E-01  2.39043075E-16 -2.74169715E-16 -5.70996009E-16  6.90922311E-16
 -2.58732656E-01  2.87786058E-01 -9.69630610E-02  9.31530694E-02  3.46448719E-01
 -4.60770980E-01 -1.57812248E-01  1.70945851E-01  1.35124008E-01 -1.71684662E-01
 -2.16652134E-01  2.53045598E-01 -6.66818870E-03  6.32453382E-03  1.19125764E-02
 -4.19359719E-02 -7.42003834E-01  7.97130737E-01  5.37901766E-02 -1.85671181E-01
 -2.67331505E-01  2.07228540E-01  2.03903837E-01 -3.77260354E-01 -2.03865827E-01
  3.77353328E-01  7.54362461E-01 -8.19623203E-01 -1.38707080E-01  2.88323646E-01
  3.05846535E-01 -2.62049860E-01  1.31224617E-15 -1.37723222E-15 -1.64416272E-16
  2.24228136E-16  3.78438941E-01 -5.26330658E-01 -6.80252307E-02  2.46168026E-02
 -2.63473445E-01  2.69920004E-01 -4.20233234E-01  4.58201693E-01 -1.24110389E-01
  9.43996617E-02 -2.82461560E-01  2.93606730E-01  1.99198528E-01 -2.96110131E-01
 -1.51341104E-01  1.19095727E-01  7.14032457E-01 -7.80205358E-01  1.32832789E-02
  9.53680803E-02 -3.17941868E-01  5.01747597E-01  2.43931165E-01 -1.95065976E-01
  8.03130129E-02 -8.72563863E-03  6.58798820E-01 -7.21379302E-01 -8.52377169E-02
  1.99291988E-01 -7.84117090E-02  1.88674964E-01  2.22776372E-16 -2.41805581E-16
  8.70301021E-17 -7.21247043E-17 -3.30698711E-03  1.61740656E-01  6.55226505E-01
 -6.74165662E-01 -3.37695827E-01  5.84598992E-01  5.99276816E-01 -6.06297030E-01
 -5.80935937E-01  7.20044984E-01  4.63442208E-02 -6.88926750E-02  3.70423056E-01
 -4.82975750E-01  9.32947749E-02 -1.20257040E-01 -2.31277719E-01  2.40206079E-01
  2.16242651E-01 -3.20619200E-01 -3.34717288E-01  3.63125063E-01  3.59715966E-02
 -9.98560455E-02  2.71292363E-02  2.25025829E-02  2.08259114E-01 -2.13956905E-01
  1.80471941E-01 -1.90002941E-01 -1.35181012E-01  2.11485830E-01 -1.47769167E-15
  1.58163033E-15  5.84656702E-16 -5.87947012E-16 -3.41114235E-01  4.02666092E-01
  3.39765610E-01 -4.51641006E-01  1.51111269E-01 -2.24338045E-01 -3.10729124E-01
  3.63744853E-01 -4.48769928E-01  4.32275707E-01 -5.80870714E-01  6.02845805E-01
  2.32347423E-01 -4.45839456E-01 -3.98717443E-02 -1.06451345E-01 -2.26686999E-02
  3.98558374E-02 -1.32551807E-01  1.98504057E-01  3.89422460E-01 -4.83909779E-01
 -1.34497952E-01  1.94729019E-01  4.39306198E-01 -5.94959049E-01 -1.68480462E-01
  1.78618002E-01 -5.88741195E-01  7.16394506E-01  1.12629044E-01 -1.77868442E-01
  1.67934708E-15 -1.63201733E-15  7.33391852E-16 -7.43779704E-16 -1.05156979E-01
  2.38001187E-01  2.11955879E-01 -1.93993586E-01  1.97620016E-01 -1.55798876E-01
  1.92246904E-01 -1.72333977E-01  2.51075825E-01 -4.44952045E-01 -2.79068777E-01
  2.56639874E-01  6.49690799E-02 -2.11889101E-01 -6.78291759E-01  7.82391892E-01
 -9.47983796E-02  8.48065969E-02 -5.91858328E-01  7.43599017E-01  1.26139056E-02
 -5.76112067E-02  4.57534069E-01 -6.34609796E-01 -3.24425199E-02 -4.23134871E-02
 -6.41042894E-02  9.87092672E-04  2.02087822E-01 -3.73336444E-01 -6.34557286E-01
  7.35712137E-01 -7.69687119E-16  7.89370105E-16  1.29082099E-15 -1.18780415E-15
 -8.52967336E-03 -2.07511154E-01 -3.94869641E-01  3.04629864E-01 -4.66475013E-01
  3.94098999E-01 -3.89448140E-01  2.97052550E-01 -3.93702292E-01  3.47074805E-01
 -3.02608007E-01  2.25531441E-01 -1.78925998E-01  6.67440263E-02 -1.19722886E-01
 -7.90905687E-03 -3.93087579E-01  3.15879774E-01 -2.34382215E-02 -1.83194823E-01
 -5.46445019E-01  5.16560832E-01 -2.20975989E-01  8.38808948E-02 -3.58878905E-01
  2.57671622E-01 -4.19633065E-01  3.35350811E-01 -1.08792318E-01 -7.88742630E-02
 -3.73623520E-01  2.75056160E-01 -1.78028120E-15  1.85783893E-15 -5.97582213E-17
  3.66406990E-17 -2.86876434E-01  3.50395693E-01 -1.08820509E-01  1.03360978E-01
  9.64995788E-02 -1.86982680E-01  3.08695211E-02 -8.66743572E-02 -4.70984018E-01
  3.92752545E-01 -1.46671704E-01 -7.53887706E-02 -5.98961613E-01  5.73957806E-01
 -3.27733721E-01  1.85753280E-01  1.60515533E-01  1.04666854E-01  7.78874516E-01
 -7.84877865E-01  4.13844534E-01 -2.45952238E-01  4.78361564E-01 -3.42381239E-01
 -1.69923361E-01  2.65177356E-01  4.50606506E-02 -6.01553538E-02  2.33805431E-01
 -3.44573919E-01 -9.86965278E-02  1.39869413E-01 -4.61422179E-15  4.78142456E-15
 -8.19740181E-17  1.17167100E-16  3.77793820E-01 -4.17596462E-01 -4.31990724E-02
  1.80717738E-01  2.32940642E-01 -2.03642701E-01  1.13715862E-01 -3.33139438E-02
 -3.03156643E-01  1.58228611E-01 -1.18242139E-01 -9.00689573E-02 -5.39816915E-01
  5.10345243E-01 -4.73217645E-01  4.10980305E-01 -1.22288296E-01 -2.61996177E-02
 -2.11550778E-01  8.27812724E-02 -1.91705113E-01  7.87980454E-02 -5.74516890E-01
  6.21780594E-01  6.04751575E-01 -5.81207116E-01  1.72497302E-01  3.31432741E-02
  4.39254452E-01 -3.39277944E-01  3.09377311E-01 -1.65091517E-01  2.21865089E-15
 -2.32640658E-15  8.33476908E-17 -8.31901372E-17  7.50398534E-01 -7.33281250E-01
  3.40881808E-01 -1.28782448E-01  6.24567522E-01 -5.60643197E-01  1.83937364E-01
  8.83716052E-02 -1.87831075E-02 -2.06226481E-02 -5.52356848E-02  1.75216585E-02
 -3.70474155E-01  5.01230286E-01  1.35247841E-01 -2.76204267E-01  1.03233743E-02
 -1.10798660E-02  2.04933420E-01 -3.00228969E-01 -1.92871592E-01  2.84474024E-01
 -6.12671770E-03  1.65555730E-02 -2.81327565E-01  1.50176247E-01 -1.15787970E-01
 -8.31916965E-02 -6.68670991E-01  7.24417327E-01 -2.93856135E-01  1.57725001E-01
  1.06206584E-15 -1.11492379E-15 -3.06171746E-15  3.14077553E-15  2.25409400E-15
 -2.47042921E-15  1.64126135E-15 -1.23472481E-15  2.92082694E-15 -3.02922933E-15
 -2.19703139E-15  3.46436241E-15  2.04436580E-15 -2.35022118E-15 -1.66347140E-16
  9.38043479E-16  1.10788329E-15 -8.00815947E-16  1.51107921E-15 -1.18437036E-15
 -8.03227012E-16 -5.85925983E-16 -3.75088911E-15  3.78010303E-15 -1.07692715E-15
  3.58037012E-17 -2.83515510E-15  2.62739951E-15  2.41807392E-15 -2.61417000E-15
  9.79861329E-16 -4.61372471E-16 -1.57325505E-15  3.23389547E-15  3.38702997E-15
 -3.48069089E-15 -1.14981805E+00  1.18695880E+00 -1.51602629E-10  1.56499641E-10
 -3.04250853E-15  3.34774657E-15 -9.60482937E-16  5.09068770E-16 -1.17971933E-15
  1.20815066E-15  1.01134791E-15 -1.94941900E-15 -4.41561961E-16  4.11554706E-16
 -1.29393114E-15  1.53521105E-15  1.87604557E-15 -2.78080606E-15 -9.04707865E-16
  1.20471475E-15  5.07981447E-16 -5.98006830E-16 -1.41989774E-15  1.94533820E-15
  5.69755159E-16 -9.37645646E-16 -3.03527906E-16  1.18859610E-16  1.15954338E-15
 -1.03685255E-15  5.53798646E-16 -1.06117387E-16  1.71641990E-15 -2.09853241E-15
 -5.79303662E-16  1.05939208E-15  1.51603360E-10 -1.56500424E-10 -1.14981805E+00
  1.18695880E+00
Beta MO coefficients                       R   N=        1296
 -1.00908726E-21  2.14326229E-21  1.19253961E-21 -1.67170610E-21  1.65479404E-21
 -3.01869450E-21  4.87944593E-22 -3.86716705E-22 -6.24014240E-22  8.83430116E-22
  8.82276985E-22 -7.73194665E-22 -1.45587995E-21  1.92823068E-21  2.07111591E-21
 -1.97466079E-21 -2.40357667E-21  3.30854769E-21 -1.92135781E-22 -3.62590552E-22
  1.10480808E-21 -6.27386827E-22 -1.96381052E-22 -4.70407318E-22 -1.92113617E-22
  3.40244955E-22  2.20062125E-22 -1.39922022E-21  6.26620934E-22 -1.19117165E-21
 -3.33039923E-21  3.92332903E-21 -5.92081261E-01 -5.13586011E-01 -1.07602162E-22
  1.11059952E-22  7.43204674E-19  2.92544546E-16  3.46960321E-17 -1.72698505E-16