                  Welcome to Q-Chem
     A Quantum Leap Into The Future Of Chemistry


 Q-Chem 4.3, Q-Chem, Inc., Pleasanton, CA (2015)

 Y. Shao,  Z. Gan,  E. Epifanovsky,  A. T. B. Gilbert,  M. Wormit,  
 J. Kussmann,  A. W. Lange,  A. Behn,  J. Deng,  X. Feng,  D. Ghosh,  
 M. Goldey,  P. R. Horn,  L. D. Jacobson,  I. Kaliman,  R. Z. Khaliullin,  
 T. Kus,  A. Landau,  J. Liu,  E. I. Proynov,  Y. M. Rhee,  R. M. Richard,  
 M. A. Rohrdanz,  R. P. Steele,  E. J. Sundstrom,  H. L. Woodcock III,  
 P. M. Zimmerman,  D. Zuev,  B. Albrecht,  E. Alguire,  B. Austin,  
 S. A. Baeppler,  G. J. O. Beran,  Y. A. Bernard,  E. Berquist,  
 K. Brandhorst,  K. B. Bravaya,  S. T. Brown,  D. Casanova,  C.-M. Chang,  
 Y. Chen,  S. H. Chien,  K. D. Closser,  D. L. Crittenden,  M. Diedenhofen,  
 R. A. DiStasio Jr.,  H. Do,  A. D. Dutoi,  R. G. Edgar,  P.-T. Fang,  
 S. Fatehi,  Q. Feng,  L. Fusti-Molnar,  A. Ghysels,  
 A. Golubeva-Zadorozhnaya,  J. Gomes,  A. Gunina,  M. W. D. Hanson-Heine,  
 P. H. P. Harbach,  A. W. Hauser,  E. G. Hohenstein,  Z. C. Holden,  K. Hui,  
 T.-C. Jagau,  H. Ji,  B. Kaduk,  K. Khistyaev,  Jaehoon Kim,  Jihan Kim,  
 R. A. King,  P. Klunzinger,  D. Kosenkov,  T. Kowalczyk,  C. M. Krauter,  
 K. U. Lao,  A. Laurent,  K. V. Lawler,  S. Lehtola,  S. V. Levchenko,  
 C. Y. Lin,  Y.-S. Lin,  F. Liu,  E. Livshits,  R. C. Lochan,  A. Luenser,  
 P. Manohar,  S. F. Manzer,  S.-P. Mao,  N. Mardirossian,  A. V. Marenich,  
 L. A. Martinez-Martinez,  S. A. Maurer,  N. J. Mayhall,  K. Nanda,  
 C. M. Oana,  R. Olivares-Amaya,  D. P. O'Neill,  J. A. Parkhill,  
 T. M. Perrine,  R. Peverati,  P. A. Pieniazek,  F. Plasser,  A. Prociuk,  
 D. R. Rehn,  E. Rosta,  N. J. Russ,  N. Sergueev,  S. M. Sharada,  
 S. Sharma,  D. W. Small,  A. Sodt,  T. Stauch,  T. Stein,  D. Stuck,  
 Y.-C. Su,  A. J. W. Thom,  T. Tsuchimochi,  L. Vogt,  O. Vydrov,  T. Wang,  
 M. A. Watson,  J. Wenzel,  A. White,  C. F. Williams,  V. Vanovschi,  
 S. Yeganeh,  S. R. Yost,  Z.-Q. You,  I. Y. Zhang,  X. Zhang,  Y. Zhao,  
 B. R. Brooks,  G. K. L. Chan,  D. M. Chipman,  C. J. Cramer,  
 W. A. Goddard III,  M. S. Gordon,  W. J. Hehre,  A. Klamt,  
 H. F. Schaefer III,  M. W. Schmidt,  C. D. Sherrill,  D. G. Truhlar,  
 A. Warshel,  X. Xu,  A. Aspuru-Guzik,  R. Baer,  A. T. Bell,  N. A. Besley,  
 J.-D. Chai,  A. Dreuw,  B. D. Dunietz,  T. R. Furlani,  S. R. Gwaltney,  
 C.-P. Hsu,  Y. Jung,  J. Kong,  D. S. Lambrecht,  W. Liang,  C. Ochsenfeld,  
 V. A. Rassolov,  L. V. Slipchenko,  J. E. Subotnik,  T. Van Voorhis,  
 J. M. Herbert,  A. I. Krylov,  P. M. W. Gill,  M. Head-Gordon

 Contributors to earlier versions of Q-Chem not listed above: 
 R. D. Adamson,  J. Baker,  E. F. C. Byrd,  A. K. Chakraborty,  C.-L. Cheng,  
 H. Dachsel,  R. J. Doerksen,  G. Hawkins,  A. Heyden,  S. Hirata,  
 G. Kedziora,  F. J. Keil,  C. Kelley,  P. P. Korambath,  W. Kurlancheek,  
 A. M. Lee,  M. S. Lee,  D. Liotard,  I. Lotan,  P. E. Maslen,  N. Nair,  
 D. Neuhauser,  R. Olson,  B. Peters,  J. Ritchie,  N. E. Schultz,  
 N. Shenvi,  A. C. Simmonett,  K. S. Thanthiriwatte,  Q. Wu,  W. Zhang

 Please cite Q-Chem as follows:
 Y. Shao et al., Mol. Phys. 113, 184-215 (2015)
 DOI: 10.1080/00268976.2014.952696

 Q-Chem 4.3.0 for Intel X86 EM64T Linux

 Parts of Q-Chem use Armadillo 5.200.1 (Boston Tea Smuggler).
 http://arma.sourceforge.net/

 Q-Chem begins on Tue Mar 21 16:19:52 2017  


Host: 0

     Scratch files written to /home/nmayhall/scratch_qchem/h16//
 Dec1416 |home|nmayhall|qcSoftware|qchem|qchem.svn-casman|libmdc|qstr_RNUM -1
 Using version located at /home/nmayhall/qcSoftware/qchem/qchem.svn-casman/bin/qchem


Total Memory Limit in MB = 2000
Mega-Array Size in MB = 62

Checking the input file for inconsistencies... 	...done.

 Q-Chem warning in module /home/nmayhall/qcSoftware/qchem/qchem.svn-casman/forms1/BasisType.C, line 1452:

 You are not using the predefined 5D/6D in this basis set.

Finally everything over in PARseQInput

--------------------------------------------------------------
User input:
--------------------------------------------------------------
$rem
	exchange 		hf
	unrestricted		1
	basis			6-31g*	
	aux_basis		rimp2-vdz
	scf_guess		core	
	scf_convergence		8
	purecart		1111

	symmetry		0
	sym_ignore		1

	!correlation		sf-cas
	!cas_n_spin_flip		1
	!cas_local		1
	gui			2
$end

$development
	1sf_heis_projection	1
$end

$molecule
0 17
H         -0.73854       -0.54065        0.08576
H         -2.31340       -1.01748       -0.67017
H         -2.09582        0.65549       -0.01146
H         -2.21044       -0.75437        1.11995
H          1.47674        3.07203        0.09828
H          0.16850        3.66022        1.20546
H          0.18287        1.93480        0.65668
H         -0.21686        3.25528       -0.51743
H          3.48850       -0.87553       -0.06084
H          2.29649        0.48578       -0.00191
H          1.93960       -1.06676        0.85992
H          1.91588       -1.00965       -0.95022
H          1.31031        1.17349       -2.51887
H          0.05197        1.55356       -3.76532
H         -0.44466        1.14372       -2.07386
H          0.23591       -0.14164       -3.15141
He	10	10	10	
He	-10	10	10	
$end


--------------------------------------------------------------
 ----------------------------------------------------------------
             Standard Nuclear Orientation (Angstroms)
    I     Atom           X                Y                Z
 ----------------------------------------------------------------
    1      H      -0.7385400000    -0.5406500000     0.0857600000
    2      H      -2.3134000000    -1.0174800000    -0.6701700000
    3      H      -2.0958200000     0.6554900000    -0.0114600000
    4      H      -2.2104400000    -0.7543700000     1.1199500000
    5      H       1.4767400000     3.0720300000     0.0982800000
    6      H       0.1685000000     3.6602200000     1.2054600000
    7      H       0.1828700000     1.9348000000     0.6566800000
    8      H      -0.2168600000     3.2552800000    -0.5174300000
    9      H       3.4885000000    -0.8755300000    -0.0608400000
   10      H       2.2964900000     0.4857800000    -0.0019100000
   11      H       1.9396000000    -1.0667600000     0.8599200000
   12      H       1.9158800000    -1.0096500000    -0.9502200000
   13      H       1.3103100000     1.1734900000    -2.5188700000
   14      H       0.0519700000     1.5535600000    -3.7653200000
   15      H      -0.4446600000     1.1437200000    -2.0738600000
   16      H       0.2359100000    -0.1416400000    -3.1514100000
   17      He     10.0000000000    10.0000000000    10.0000000000
   18      He    -10.0000000000    10.0000000000    10.0000000000
 ----------------------------------------------------------------
 Nuclear Repulsion Energy =    21.7022848765 hartrees
 There are       18 alpha and        2 beta electrons
 Requested basis set is 6-31G(d)
 There are 36 shells and 36 basis functions

Total QAlloc Memory Limit   2000 MB
Mega-Array Size        61 MB
MEM_STATIC part        62 MB

finished with qalloc call

 Q-Chem warning in module /home/nmayhall/qcSoftware/qchem/qchem.svn-casman/forms1/BasisType.C, line 1375:

 SAD: How to set up polarization functions for non-Pople basis?

 Requested basis set is rimp2-VDZ
 There are 106 shells and 242 basis functions
 Job number = 2, Threshold = 1.00E-11
Integral type ranges set in mkLRange.C for JobNum: 2  <1-7|1-7>
Symmetry turned off temporarily
 Using the largest function pair in Schwarz integrals
Total number of integrals generated =            1457
Symmetry turned back on
 A cutoff of  1.0D-11 yielded    503 shell pairs
 There are       503 function pairs
 Job number = 11, Threshold = 1.00E-11
Integral type ranges set in mkLRange.C for JobNum: 11  <1-1|8-8>

 -------------------------------------------------------
 OpenMP Integral Computing Module                       
 Release: version 1.0, May 2013, Q-Chem Inc. Pittsburgh 
 -------------------------------------------------------
 Integral Job Info:
 Integral job number is                      11
 Integral operator is                         1
 short-range coefficients                     0
 long-range coefficients              100000000
 Omega coefficients                           0
 if combine SR and LR in K                    0
 Integral screening is                        0
 Integral computing path is                   2
 max size of driver memory is            800000
 size of driver memory is                 11780
 size of scratch memory is               800000
 max col of scratch BK array                289
 max len of scratch array in speh3            1
 max len of scratch index in speh4            2
 max int batch size is                      520
 min int batch size is                       52
 fixed nKL is                               520
 max L of basis functions is                  0
 order of int derivative is                   0
 number of shells is                         36
 number of basis is                          36
 number of cartesian basis is                36
 number of contracted shell pairs           503
 number of primitive shell pairs           1361
 maxK2 (contraction) of shell pair            9
 max number of K2 of shell pair               1
 max number of CS2 of shell pair            267
 max number of PS2 of shell pair            801
 mem total for path MDJ                    8220
 -------------------------------------------------------
 Smallest overlap matrix eigenvalue = 1.80E-01
 Multipole matrices computed through 2nd order

  Scale SEOQF with 1.000000e-02/1.000000e-02/1.000000e-02

 Standard Electronic Orientation quadrupole field applied
GuessMan:  IGuess = 1
 Guess MOs from core Hamiltonian diagonalization
scfman initvdwdat 
 An unrestricted Hartree-Fock SCF calculation will be
 performed using Pulay DIIS extrapolation
 SCF converges when DIIS error is below 1.0E-08
Finding J and K together
 Job number = 22, Threshold = 1.00E-11
Integral type ranges set in mkLRange.C for JobNum: 22  <1-1|1-1>
Storing 1434.40% of integrals
Total number of integrals generated =          114841
 MakeJK  time:  CPU       0.03 s  wall       0.03 s
Fock build time:  0.03 s (CPU) 0.03 s (wall)
DIIS Errors:  Max 3.29E-01 RMS 2.56E-02

Current DIIS subspace size = 1
REM_GRID_RESTART_DIIS = 0

 ---------------------------------------
  Cycle       Energy         DIIS Error
 ---------------------------------------
    1     -11.2989206724      2.56E-02  00000
Finding J and K together
 Job number = 22, Threshold = 1.00E-11
Integral type ranges set in mkLRange.C for JobNum: 22  <1-1|1-1>
Storing 1434.40% of integrals
Reusing in-core integrals buffer for job 22
 MakeJK  time:  CPU       0.01 s  wall       0.01 s
Fock build time:  0.01 s (CPU) 0.01 s (wall)
DIIS Errors:  Max 2.54E-01 RMS 1.50E-02

Current DIIS subspace size = 2
REM_GRID_RESTART_DIIS = 0

    2     -13.2825854193      1.50E-02  00000
Finding J and K together
 Job number = 22, Threshold = 1.00E-11
Integral type ranges set in mkLRange.C for JobNum: 22  <1-1|1-1>
Storing 1434.40% of integrals
Reusing in-core integrals buffer for job 22
 MakeJK  time:  CPU       0.01 s  wall       0.01 s
Fock build time:  0.01 s (CPU) 0.01 s (wall)
DIIS Errors:  Max 9.57E-02 RMS 5.88E-03

Current DIIS subspace size = 3
REM_GRID_RESTART_DIIS = 0

    3     -13.3533059398      5.88E-03  00000
Finding J and K together
 Job number = 22, Threshold = 1.00E-11
Integral type ranges set in mkLRange.C for JobNum: 22  <1-1|1-1>
Storing 1434.40% of integrals
Reusing in-core integrals buffer for job 22
 MakeJK  time:  CPU       0.01 s  wall       0.01 s
Fock build time:  0.01 s (CPU) 0.01 s (wall)
DIIS Errors:  Max 7.16E-03 RMS 5.40E-04

Current DIIS subspace size = 4
REM_GRID_RESTART_DIIS = 0

    4     -13.3803361418      5.40E-04  00000
Finding J and K together
 Job number = 22, Threshold = 1.00E-11
Integral type ranges set in mkLRange.C for JobNum: 22  <1-1|1-1>
Storing 1434.40% of integrals
Reusing in-core integrals buffer for job 22
 MakeJK  time:  CPU       0.01 s  wall       0.01 s
Fock build time:  0.01 s (CPU) 0.01 s (wall)
DIIS Errors:  Max 1.38E-04 RMS 8.27E-06

Current DIIS subspace size = 5
REM_GRID_RESTART_DIIS = 0

    5     -13.3826919134      8.27E-06  00000
Finding J and K together
 Job number = 22, Threshold = 1.00E-11
Integral type ranges set in mkLRange.C for JobNum: 22  <1-1|1-1>
Storing 1434.40% of integrals
Reusing in-core integrals buffer for job 22
 MakeJK  time:  CPU       0.01 s  wall       0.01 s
Fock build time:  0.01 s (CPU) 0.01 s (wall)
DIIS Errors:  Max 1.31E-05 RMS 7.66E-07

Current DIIS subspace size = 6
REM_GRID_RESTART_DIIS = 0

    6     -13.3827950747      7.66E-07  00000
Finding J and K together
 Job number = 22, Threshold = 1.00E-11
Integral type ranges set in mkLRange.C for JobNum: 22  <1-1|1-1>
Storing 1434.40% of integrals
Reusing in-core integrals buffer for job 22
 MakeJK  time:  CPU       0.00 s  wall       0.01 s
Fock build time:  0.00 s (CPU) 0.01 s (wall)
DIIS Errors:  Max 8.38E-07 RMS 5.76E-08

Current DIIS subspace size = 7
REM_GRID_RESTART_DIIS = 0

    7     -13.3828108679      5.76E-08  00000
Finding J and K together
 Job number = 22, Threshold = 1.00E-11
Integral type ranges set in mkLRange.C for JobNum: 22  <1-1|1-1>
Storing 1434.40% of integrals
Reusing in-core integrals buffer for job 22
 MakeJK  time:  CPU       0.00 s  wall       0.01 s
Fock build time:  0.00 s (CPU) 0.01 s (wall)
DIIS Errors:  Max 2.11E-07 RMS 1.23E-08

Current DIIS subspace size = 8
REM_GRID_RESTART_DIIS = 0

    8     -13.3828138470      1.23E-08  00000
Finding J and K together
 Job number = 22, Threshold = 1.00E-11
Integral type ranges set in mkLRange.C for JobNum: 22  <1-1|1-1>
Storing 1434.40% of integrals
Reusing in-core integrals buffer for job 22
 MakeJK  time:  CPU       0.01 s  wall       0.01 s
Fock build time:  0.01 s (CPU) 0.01 s (wall)
DIIS Errors:  Max 1.09E-08 RMS 6.25E-10

Current DIIS subspace size = 9
REM_GRID_RESTART_DIIS = 0

    9     -13.3828141167      6.25E-10  00000 Convergence criterion met
 ---------------------------------------
 <S^2> = 72.0000
 SCF time:  CPU 0.10 s  wall 0.10 s
 SCF   energy in the final basis set = -13.3828141167
 Total energy in the final basis set = -13.3828141167
Symmetry turned off temporarily
 Analysis of SCF Wavefunction

 --------------------------------------------------------------

                    Orbital Energies (a.u.)
 --------------------------------------------------------------

 Alpha MOs
 -- Occupied --
 -0.914  -0.914  -0.726  -0.700  -0.698  -0.697  -0.487  -0.481
 -0.474  -0.467  -0.459  -0.457  -0.449  -0.443  -0.440  -0.438
 -0.434  -0.425
 -- Virtual --
  0.789   0.823   0.830   0.859   0.900   0.911   0.960   0.973
  0.976   0.991   1.007   1.036   1.047   1.186   1.194   1.204
  1.400   1.400

 Beta MOs
 -- Occupied --
 -0.914  -0.914
 -- Virtual --
 -0.070  -0.035  -0.032  -0.030   0.121   0.125   0.133   0.144
  0.158   0.160   0.177   0.187   0.191   0.195   0.203   0.216
  1.026   1.050   1.053   1.076   1.109   1.120   1.159   1.171
  1.174   1.187   1.202   1.228   1.248   1.381   1.388   1.396
  1.400   1.400
 --------------------------------------------------------------

          Ground-State Mulliken Net Atomic Charges

     Atom                 Charge (a.u.)    Spin (a.u.)
  --------------------------------------------------------
      1 H                    -0.000020       1.000020
      2 H                     0.000010       0.999990
      3 H                    -0.000081       1.000081
      4 H                     0.000097       0.999903
      5 H                    -0.000077       1.000077
      6 H                     0.000118       0.999882
      7 H                    -0.000020       1.000020
      8 H                    -0.000048       1.000048
      9 H                     0.000109       0.999891
     10 H                     0.000010       0.999990
     11 H                    -0.000059       1.000059
     12 H                    -0.000057       1.000057
     13 H                    -0.000065       1.000065
     14 H                     0.000124       0.999876
     15 H                     0.000016       0.999984
     16 H                    -0.000056       1.000056
     17 He                    0.000000       0.000000
     18 He                    0.000000      -0.000000
  --------------------------------------------------------
  Sum of atomic charges =    -0.000000
  Sum of spin   charges =    16.000000

 -----------------------------------------------------------------
                    Cartesian Multipole Moments
 -----------------------------------------------------------------
    Charge (ESU x 10^10)
                -0.0000
    Dipole Moment (Debye)
         X      -0.0003      Y       0.0005      Z       0.0011
       Tot       0.0012
    Quadrupole Moments (Debye-Ang)
        XX     -25.5319     XY       0.0193     YY     -25.5868
        XZ      -0.0057     YZ      -0.0134     ZZ     -25.5348
    Octopole Moments (Debye-Ang^2)
       XXX     -25.0693    XXY     -37.1419    XYY      -6.5345
       YYY    -114.0924    XXZ      -6.9306    XYZ      -0.0224
       YYZ      -6.7964    XZZ      -5.3604    YZZ     -37.7344
       ZZZ     -19.6350
    Hexadecapole Moments (Debye-Ang^3)
      XXXX   -1667.7881   XXXY     -12.9996   XXYY    -560.4499
      XYYY     -11.5122   YYYY   -1684.1113   XXXZ      18.6742
      XXYZ    -197.8503   XYYZ       4.7033   YYYZ    -602.8131
      XXZZ    -542.8070   XYZZ      -3.2765   YYZZ    -561.0803
      XZZZ      15.6890   YZZZ    -592.0300   ZZZZ   -1631.2412
 -----------------------------------------------------------------
 JobOver = TRUE
Archival summary:
1\1\sinatra\SP\HF\6-31G*\e216(\nmayhall\TueMar2116:19:522017TueMar2116:19:522017\0\\#,HF,6-31G*,\\0,17\H\H,1,1.80987\H,1,1.81009,2,60.0846\H,1,1.81076,2,60.0431,3,-70.5554,0\H,1,2.63307,2,110.31,3,-151.7,0\H,5,1.81131,1,139.459,2,147.862,0\H,6,1.81065,5,60.0237,1,-0.959826,0\H,7,1.81086,6,60.0452,5,-70.5123,0\H,7,2.6459,6,127.132,5,-99.3643,0\H,9,1.81039,7,161.062,6,-128.385,0\H,9,1.81121,7,114.496,6,162.928,0\H,11,1.8112,9,60.0005,7,89.002,0\H,1,2.68667,2,158.004,3,107.309,0\H,13,1.8111,1,87.8509,2,-80.3099,0\H,14,1.8108,13,60.0291,1,-71.0844,0\H,13,1.81133,1,131.287,2,-126.04,0\He,6,14.6354,5,144.227,1,-112.292,0\He,6,14.8639,5,120.837,1,115.817,0\\HF=-13.3828141\\@

 Total job time:  0.16s(wall), 0.16s(cpu) 
 Tue Mar 21 16:19:52 2017

        *************************************************************
        *                                                           *
        *  Thank you very much for using Q-Chem.  Have a nice day.  *
        *                                                           *
        *************************************************************


*** MISSION COMPLETED -- STARFLEET OUT ***

 
User input: 2 of 2 
 
                  Welcome to Q-Chem
     A Quantum Leap Into The Future Of Chemistry


 Q-Chem 4.3, Q-Chem, Inc., Pleasanton, CA (2015)

 Y. Shao,  Z. Gan,  E. Epifanovsky,  A. T. B. Gilbert,  M. Wormit,  
 J. Kussmann,  A. W. Lange,  A. Behn,  J. Deng,  X. Feng,  D. Ghosh,  
 M. Goldey,  P. R. Horn,  L. D. Jacobson,  I. Kaliman,  R. Z. Khaliullin,  
 T. Kus,  A. Landau,  J. Liu,  E. I. Proynov,  Y. M. Rhee,  R. M. Richard,  
 M. A. Rohrdanz,  R. P. Steele,  E. J. Sundstrom,  H. L. Woodcock III,  
 P. M. Zimmerman,  D. Zuev,  B. Albrecht,  E. Alguire,  B. Austin,  
 S. A. Baeppler,  G. J. O. Beran,  Y. A. Bernard,  E. Berquist,  
 K. Brandhorst,  K. B. Bravaya,  S. T. Brown,  D. Casanova,  C.-M. Chang,  
 Y. Chen,  S. H. Chien,  K. D. Closser,  D. L. Crittenden,  M. Diedenhofen,  
 R. A. DiStasio Jr.,  H. Do,  A. D. Dutoi,  R. G. Edgar,  P.-T. Fang,  
 S. Fatehi,  Q. Feng,  L. Fusti-Molnar,  A. Ghysels,  
 A. Golubeva-Zadorozhnaya,  J. Gomes,  A. Gunina,  M. W. D. Hanson-Heine,  
 P. H. P. Harbach,  A. W. Hauser,  E. G. Hohenstein,  Z. C. Holden,  K. Hui,  
 T.-C. Jagau,  H. Ji,  B. Kaduk,  K. Khistyaev,  Jaehoon Kim,  Jihan Kim,  
 R. A. King,  P. Klunzinger,  D. Kosenkov,  T. Kowalczyk,  C. M. Krauter,  
 K. U. Lao,  A. Laurent,  K. V. Lawler,  S. Lehtola,  S. V. Levchenko,  
 C. Y. Lin,  Y.-S. Lin,  F. Liu,  E. Livshits,  R. C. Lochan,  A. Luenser,  
 P. Manohar,  S. F. Manzer,  S.-P. Mao,  N. Mardirossian,  A. V. Marenich,  
 L. A. Martinez-Martinez,  S. A. Maurer,  N. J. Mayhall,  K. Nanda,  
 C. M. Oana,  R. Olivares-Amaya,  D. P. O'Neill,  J. A. Parkhill,  
 T. M. Perrine,  R. Peverati,  P. A. Pieniazek,  F. Plasser,  A. Prociuk,  
 D. R. Rehn,  E. Rosta,  N. J. Russ,  N. Sergueev,  S. M. Sharada,  
 S. Sharma,  D. W. Small,  A. Sodt,  T. Stauch,  T. Stein,  D. Stuck,  
 Y.-C. Su,  A. J. W. Thom,  T. Tsuchimochi,  L. Vogt,  O. Vydrov,  T. Wang,  
 M. A. Watson,  J. Wenzel,  A. White,  C. F. Williams,  V. Vanovschi,  
 S. Yeganeh,  S. R. Yost,  Z.-Q. You,  I. Y. Zhang,  X. Zhang,  Y. Zhao,  
 B. R. Brooks,  G. K. L. Chan,  D. M. Chipman,  C. J. Cramer,  
 W. A. Goddard III,  M. S. Gordon,  W. J. Hehre,  A. Klamt,  
 H. F. Schaefer III,  M. W. Schmidt,  C. D. Sherrill,  D. G. Truhlar,  
 A. Warshel,  X. Xu,  A. Aspuru-Guzik,  R. Baer,  A. T. Bell,  N. A. Besley,  
 J.-D. Chai,  A. Dreuw,  B. D. Dunietz,  T. R. Furlani,  S. R. Gwaltney,  
 C.-P. Hsu,  Y. Jung,  J. Kong,  D. S. Lambrecht,  W. Liang,  C. Ochsenfeld,  
 V. A. Rassolov,  L. V. Slipchenko,  J. E. Subotnik,  T. Van Voorhis,  
 J. M. Herbert,  A. I. Krylov,  P. M. W. Gill,  M. Head-Gordon

 Contributors to earlier versions of Q-Chem not listed above: 
 R. D. Adamson,  J. Baker,  E. F. C. Byrd,  A. K. Chakraborty,  C.-L. Cheng,  
 H. Dachsel,  R. J. Doerksen,  G. Hawkins,  A. Heyden,  S. Hirata,  
 G. Kedziora,  F. J. Keil,  C. Kelley,  P. P. Korambath,  W. Kurlancheek,  
 A. M. Lee,  M. S. Lee,  D. Liotard,  I. Lotan,  P. E. Maslen,  N. Nair,  
 D. Neuhauser,  R. Olson,  B. Peters,  J. Ritchie,  N. E. Schultz,  
 N. Shenvi,  A. C. Simmonett,  K. S. Thanthiriwatte,  Q. Wu,  W. Zhang

 Please cite Q-Chem as follows:
 Y. Shao et al., Mol. Phys. 113, 184-215 (2015)
 DOI: 10.1080/00268976.2014.952696

 Q-Chem 4.3.0 for Intel X86 EM64T Linux

 Parts of Q-Chem use Armadillo 5.200.1 (Boston Tea Smuggler).
 http://arma.sourceforge.net/

 Q-Chem begins on Tue Mar 21 16:19:52 2017  


Host: 0

     Scratch files written to /home/nmayhall/scratch_qchem/h16//
 Dec1416 |home|nmayhall|qcSoftware|qchem|qchem.svn-casman|libmdc|qstr_RNUM -1
 Using version located at /home/nmayhall/qcSoftware/qchem/qchem.svn-casman/bin/qchem

 Turning off symmetry for CASMAN

Total Memory Limit in MB = 2000
Mega-Array Size in MB = 62

Checking the input file for inconsistencies... 	...done.

 Q-Chem warning in module /home/nmayhall/qcSoftware/qchem/qchem.svn-casman/forms1/BasisType.C, line 1452:

 You are not using the predefined 5D/6D in this basis set.

Finally everything over in PARseQInput

--------------------------------------------------------------
User input:
--------------------------------------------------------------
$rem
	exchange 		hf
	unrestricted		0
	basis			6-31g*	
	aux_basis		rimp2-vdz
	scf_guess		read	
	scf_convergence		8
	purecart		1111

	symmetry		0
	sym_ignore		1

	correlation		sf-cas
	cas_n_spin_flip		1
	cas_local		1
	gui			2
$end

$development
	1sf_heis_projection	1
	scf_corresponding_orbs	1
        heisenberg_n_roots	0
$end

$molecule
read
$end

--------------------------------------------------------------
 ----------------------------------------------------------------
             Standard Nuclear Orientation (Angstroms)
    I     Atom           X                Y                Z
 ----------------------------------------------------------------
    1      H      -0.7385400000    -0.5406500000     0.0857600000
    2      H      -2.3134000000    -1.0174800000    -0.6701700000
    3      H      -2.0958200000     0.6554900000    -0.0114600000
    4      H      -2.2104400000    -0.7543700000     1.1199500000
    5      H       1.4767400000     3.0720300000     0.0982800000
    6      H       0.1685000000     3.6602200000     1.2054600000
    7      H       0.1828700000     1.9348000000     0.6566800000
    8      H      -0.2168600000     3.2552800000    -0.5174300000
    9      H       3.4885000000    -0.8755300000    -0.0608400000
   10      H       2.2964900000     0.4857800000    -0.0019100000
   11      H       1.9396000000    -1.0667600000     0.8599200000
   12      H       1.9158800000    -1.0096500000    -0.9502200000
   13      H       1.3103100000     1.1734900000    -2.5188700000
   14      H       0.0519700000     1.5535600000    -3.7653200000
   15      H      -0.4446600000     1.1437200000    -2.0738600000
   16      H       0.2359100000    -0.1416400000    -3.1514100000
   17      He     10.0000000000    10.0000000000    10.0000000000
   18      He    -10.0000000000    10.0000000000    10.0000000000
 ----------------------------------------------------------------
 Nuclear Repulsion Energy =    21.7022848765 hartrees
 There are       18 alpha and        2 beta electrons
 Requested basis set is 6-31G(d)
 There are 36 shells and 36 basis functions

Total QAlloc Memory Limit   2000 MB
Mega-Array Size        61 MB
MEM_STATIC part        62 MB

finished with qalloc call

 Q-Chem warning in module /home/nmayhall/qcSoftware/qchem/qchem.svn-casman/forms1/BasisType.C, line 1375:

 SAD: How to set up polarization functions for non-Pople basis?

 Requested basis set is rimp2-VDZ
 There are 106 shells and 242 basis functions
 Job number = 2, Threshold = 1.00E-12
Integral type ranges set in mkLRange.C for JobNum: 2  <1-7|1-7>
Symmetry turned off temporarily
 Using the largest function pair in Schwarz integrals
Total number of integrals generated =            1463
Symmetry turned back on
 A cutoff of  1.0D-12 yielded    509 shell pairs
 There are       509 function pairs
 Job number = 11, Threshold = 1.00E-12
Integral type ranges set in mkLRange.C for JobNum: 11  <1-1|8-8>

 -------------------------------------------------------
 OpenMP Integral Computing Module                       
 Release: version 1.0, May 2013, Q-Chem Inc. Pittsburgh 
 -------------------------------------------------------
 Integral Job Info:
 Integral job number is                      11
 Integral operator is                         1
 short-range coefficients                     0
 long-range coefficients              100000000
 Omega coefficients                           0
 if combine SR and LR in K                    0
 Integral screening is                        0
 Integral computing path is                   2
 max size of driver memory is            800000
 size of driver memory is                 11780
 size of scratch memory is               800000
 max col of scratch BK array                289
 max len of scratch array in speh3            1
 max len of scratch index in speh4            2
 max int batch size is                      520
 min int batch size is                       52
 fixed nKL is                               520
 max L of basis functions is                  0
 order of int derivative is                   0
 number of shells is                         36
 number of basis is                          36
 number of cartesian basis is                36
 number of contracted shell pairs           509
 number of primitive shell pairs           1379
 maxK2 (contraction) of shell pair            9
 max number of K2 of shell pair               1
 max number of CS2 of shell pair            267
 max number of PS2 of shell pair            801
 mem total for path MDJ                    8220
 -------------------------------------------------------
 Smallest overlap matrix eigenvalue = 1.80E-01
 Multipole matrices computed through 2nd order

  Scale SEOQF with 1.000000e-02/1.000000e-02/1.000000e-02

 Standard Electronic Orientation quadrupole field applied
GuessMan:  IGuess = 1000
 Guess MOs from SCF MO coefficient file
 Reading MOs from coefficient file
 Reading MOs from coefficient file
scfman initvdwdat 
 A restricted Hartree-Fock SCF calculation will be
 performed using Geometric Direct Minimization
 SCF converges when RMS gradient is below 1.0E-08
Finding J and K together
 Job number = 22, Threshold = 1.00E-12
Integral type ranges set in mkLRange.C for JobNum: 22  <1-1|1-1>
Storing 1400.81% of integrals
Total number of integrals generated =          119032
 MakeJK  time:  CPU       0.04 s  wall       0.03 s
Fock build time:  0.04 s (CPU) 0.03 s (wall)
 ---------------------------------------
  Cycle       Energy        RMS Gradient
 ---------------------------------------
    1     -13.3828141435      9.57E-05  00000 Normal BFGS step
Finding J and K together
 Job number = 22, Threshold = 1.00E-12
Integral type ranges set in mkLRange.C for JobNum: 22  <1-1|1-1>
Storing 1400.81% of integrals
Reusing in-core integrals buffer for job 22
 MakeJK  time:  CPU       0.01 s  wall       0.01 s
Fock build time:  0.01 s (CPU) 0.01 s (wall)
    2     -13.3828141483      3.97E-10  00000 Convergence criterion met
 ---------------------------------------
 SCF time:  CPU 0.05 s  wall 0.05 s
 Obtaining Corresponding orbitals

 Forming corresponding orbitals block-by-block...
 Size of singly occupied alpha block:      16 : 16.0000
 Size of doubly occupied block:             2 : 2.0000
 Size of singly occupied beta block:        0 : 0.0000
 Size of unoccupied block:                 18 : 18.0000
 Use scf_boys =     0 (Canonical)
                    1 (Boys)
                    2 (Pipek-Mezey)
                    3 (ER)
 Build new fock matrix
 I'm here
 I'm here
 Calling AOints...
 Job number = 22, Threshold = 1.00E-12
Integral type ranges set in mkLRange.C for JobNum: 22  <1-1|1-1>
Storing 1400.81% of integrals
 done.
 E(SCF): disk=    -13.382814148322 current=    -13.382814148322 diff=  -1.421e-14
 SCF   energy in the final basis set = -13.3828141483
 Total energy in the final basis set = -13.3828141483
 DevKeyword Parameters: 
 1sf_heis_projection                   1
  heisenberg_n_roots                   0
scf_corresponding_orbs                   1


 ========================================================
                       In SF-CAS-CI                      
 ========================================================
 DevKeyword Parameters: 
 1sf_heis_projection                   1
  heisenberg_n_roots                   0
scf_corresponding_orbs                   1

 Forming orbitals for SF-CAS calculation.
NBas   : 36
NOrb   : 36
NDOcc  : 2
NSOcc  : 16
NDVir  : 18
ISpin  : 0
e_hf: -13.38281415
 Using OPT1 Orbitals: Favg | Favg | Favg 
 A/B mix in Doubly occupied F  : 0.50000000
 A/B mix in Singly occupied F  : 0.50000000
 A/B mix in Doubly unoccupied F: 0.50000000
 Max of F(beta)ds      : 3.308e-16
 Max of F(alpha)sv     : 5.262e-12
 Max of F(average)dv   : 2.285e-11
 Orbital Energies  (D):
    1    -0.91413112    -0.91413112
    2    -0.91412423    -0.91412423
 Orbital Energies  (S):
    3    -0.38331134    -0.38331134
    4    -0.35447977    -0.35447977
    5    -0.35214812    -0.35214812
    6    -0.35092367    -0.35092367
    7    -0.16232401    -0.16232401
    8    -0.15700193    -0.15700193
    9    -0.14916065    -0.14916065
   10    -0.14133786    -0.14133786
   11    -0.13168895    -0.13168895
   12    -0.13000354    -0.13000354
   13    -0.11869245    -0.11869245
   14    -0.11148116    -0.11148116
   15    -0.10862913    -0.10862913
   16    -0.10592575    -0.10592575
   17    -0.10042459    -0.10042459
   18    -0.08983291    -0.08983291
 Orbital Energies  (V):
   19     0.88545721     0.88545721
   20     0.91510923     0.91510923
   21     0.91997200     0.91997200
   22     0.94688856     0.94688856
   23     0.98532861     0.98532861
   24     0.99673248     0.99673248
   25     1.04221316     1.04221316
   26     1.05545237     1.05545237
   27     1.05846691     1.05846691
   28     1.07316369     1.07316369
   29     1.08888147     1.08888147
   30     1.11730140     1.11730140
   31     1.13347471     1.13347471
   32     1.27186752     1.27186752
   33     1.27945821     1.27945821
   34     1.28861468     1.28861468
   35     1.39985485     1.39985485
   36     1.39986174     1.39986174
 tr(Pa)     :   18.0000000000
 tr(Pb)     :    2.0000000000
 E(core) with new P : -58.23895440
 E(HF) with new P   : -13.38281415
 Difference in Ehf  :  -6.3949e-14

 Number of spin flips: 1
 Use cas_local =    0 (Canonical)
                    1 (Boys)
                    2 (Pipek-Mezey)
                    3 (ER)
 Using Boys orbitals in casman
 
 
 
Calling Get_Boys in C++
 
 
 
Orbital 4 Variance 21.13916931
Orbital 3 Variance 21.62248798
Orbital 16 Variance 23.07448250
Orbital 6 Variance 23.76197912
Orbital 2 Variance 24.28277801
Orbital 1 Variance 24.37727947
Orbital 12 Variance 25.35753523
Orbital 5 Variance 25.74117425
Orbital 14 Variance 26.51453686
Orbital 15 Variance 26.81921086
Orbital 7 Variance 26.91164490
Orbital 9 Variance 27.88671231
Orbital 10 Variance 28.67466856
Orbital 8 Variance 28.97175026
Orbital 13 Variance 29.90006292
Orbital 11 Variance 32.77011807
          ***** NUMBER OF SADDLE POINTS SO FAR = 0 ******

Initially in boys_jacobi.C before sweep, get_boys, boysval = 107.228229
In BOYS_JACOBI SWEEPS for get_boys, ending in round     6  because max_diff = 5.384892e-07


---> BEGIN 2nd Der Calculation    ******  
Guessing MaxD =  20 and MinD = 10
in get_boys.C: p = 0 guessthresh  52.2947237599 numsofar 24 MinD 10
in get_boys.C: p = 1 guessthresh  51.7947237599 numsofar 23 MinD 10
in get_boys.C: p = 2 guessthresh  51.5447237599 numsofar 8 MinD 10
DimInGuess 8 mineval  51.2947237599 guessthresh  51.5447237599
round 0 sizeofsub 8 eval0 5.067772e+01 diffeval0 1.000497e+05 length_qM 1.130981e+00 thresh 1.000000e-08
round 1 sizeofsub 9 eval0 5.012752e+01 diffeval0 5.502019e-01 length_qM 1.809263e-01 thresh 1.000000e-08
round 2 sizeofsub 10 eval0 5.012545e+01 diffeval0 2.067918e-03 length_qM 2.485134e-01 thresh 1.000000e-08
round 3 sizeofsub 11 eval0 5.012460e+01 diffeval0 8.530567e-04 length_qM 1.459635e-02 thresh 1.000000e-08
round 4 sizeofsub 12 eval0 5.012452e+01 diffeval0 7.318370e-05 length_qM 2.198727e-02 thresh 1.000000e-08
round 5 sizeofsub 13 eval0 5.012452e+01 diffeval0 3.523345e-06 length_qM 3.280856e-03 thresh 1.000000e-08
round 6 sizeofsub 14 eval0 5.012452e+01 diffeval0 2.244909e-07 length_qM 2.022632e-04 thresh 1.000000e-08
round 7 sizeofsub 15 eval0 5.012452e+01 diffeval0 9.685408e-10 length_qM 8.378261e-05 thresh 1.000000e-08
round 8 sizeofsub 16 eval0 5.012452e+01 diffeval0 1.610516e-10 length_qM 3.240915e-05 thresh 1.000000e-08
round 9 sizeofsub 17 eval0 5.012452e+01 diffeval0 3.593215e-11 length_qM 8.069507e-06 thresh 1.000000e-08
round 10 sizeofsub 18 eval0 5.012452e+01 diffeval0 3.316103e-11 length_qM 1.109305e-05 thresh 1.000000e-08
round 11 sizeofsub 19 eval0 5.012452e+01 diffeval0 8.952838e-13 length_qM 6.429833e-07 thresh 1.000000e-08
Converged to smallest eigenvalue: eval0 5.012452e+01

Success!!! No Negative Eigenvalues: Ending Get Boys in C++ ...Bye Bye
Orbital 14 Variance 2.74330348
Orbital 9 Variance 2.74460153
Orbital 15 Variance 2.74616380
Orbital 12 Variance 2.75113103
Orbital 16 Variance 2.75871115
Orbital 8 Variance 2.76152204
Orbital 13 Variance 2.76203469
Orbital 5 Variance 2.76295078
Orbital 6 Variance 2.76475966
Orbital 7 Variance 2.77028806
Orbital 11 Variance 2.77130874
Orbital 3 Variance 2.77273614
Orbital 2 Variance 2.77404530
Orbital 1 Variance 2.77407968
Orbital 4 Variance 2.77507148
Orbital 10 Variance 2.77554609
EXECUTING ORTHO_FUNC DESTRUCTOR

 Dimensions of orbital sub-spaces:    
 Number Hole Orbs:Alpha:Beta:       2    2    2
 Number Active Orbs:Alpha:Beta:    16   15    1
 Number Part Orbs:Alpha:Beta:      18    0    0

 Dimensions in SF-RAS-hp calculation: 
 Number of active space determinants:  256
 Number of hole space determinants:    3872
 Number of part space determinants:    34848
 Number of hole-part determinants:     536868
 Total 1x space:                       38976
 Total singles space:                  575844
 REM_MEM_TOT: 2000
 Memory Used: 0
 Memory Left: 2000
 Memory Need: 4
 Constructing 1e MO integrals
 Form (P|Q)**(-1/2)...
 Job number = 66, Threshold = 1.00E-12
Integral type ranges set in mkLRange.C for JobNum: 66  <2-7|2-7>
Symmetry turned off temporarily
Storing 1400.81% of integrals
Total number of integrals generated =           33759
Symmetry turned back on
 Forming (pq|P)...
 Forming Active-Active (aa|P) integrals...

 Entering first-index batching code with I1Strt =    3 batch size =   16
 Job number = 65, Threshold = 1.00E-12
Integral type ranges set in mkLRange.C for JobNum: 65  <1-1|2-7>
Symmetry turned off temporarily
Storing 1400.81% of integrals
Total number of integrals generated =          131322
Symmetry turned back on
 Forming Active-Active B integrals...
 Contracting B matrices to form 2e integrals. 
 Forming 2J-K over o,v with exact integrals
 Calling AOints... Job number = 22, Threshold = 1.00E-12
Integral type ranges set in mkLRange.C for JobNum: 22  <1-1|1-1>
Storing 1400.81% of integrals
Total number of integrals generated =          119032
 done.

 ROHF energy found on disk: 
 E(ROHF):         -13.38281415
-13.38281415
 First 10 Diagonal elements of H: 
 111111111111111_ | 1_______________        -12.80798213
 111111111111111_ | _1______________        -12.99009177
 111111111111111_ | __1_____________        -12.85140892
 111111111111111_ | ___1____________        -12.83783372
 111111111111111_ | ____1___________        -12.88155639
 111111111111111_ | _____1__________        -12.83830382
 111111111111111_ | ______1_________        -12.83463104
 111111111111111_ | _______1________        -12.83554657
 111111111111111_ | ________1_______        -12.91385349
 111111111111111_ | _________1______        -12.99077282
 Fill S2_CAS Matrix...  done.
 Fill H_CAS Matrix...  done.

 Diagonalizing H_CAS 
 Entering cast_sfcas_to_sfcis
 ===================================================================
 Theory           State:          Energy (au)       (eV)       <S2>
 -------------------------------------------------------------------
 SF-CAS               1:       -13.4448784851     0.0000    56.0000
 SF-CAS               2:       -13.4438441953     0.0281    56.0000
 SF-CAS               3:       -13.4426952531     0.0594    56.0000
 SF-CAS               4:       -13.4413254768     0.0967    56.0000
 SF-CAS               5:       -13.4412274276     0.0994    56.0000
 SF-CAS               6:       -13.4406291329     0.1156    56.0000
 SF-CAS               7:       -13.4402585723     0.1257    56.0000
 SF-CAS               8:       -13.4398270680     0.1375    56.0000
 SF-CAS               9:       -13.4397934310     0.1384    56.0000
 SF-CAS              10:       -13.4395682455     0.1445    56.0000
 SF-CAS              11:       -13.4394979537     0.1464    56.0000
 SF-CAS              12:       -13.4392476619     0.1532    56.0000
 SF-CAS              13:       -13.3861003042     1.5995    56.0000
 SF-CAS              14:       -13.3858700216     1.6057    56.0000
 SF-CAS              15:       -13.3854567171     1.6170    56.0000
 SF-CAS              16:       -13.3828141483     1.6889    72.0000
 SF-CAS              17:       -13.1341569808     8.4552    56.0000
 SF-CAS              18:       -13.1327283495     8.4941    56.0000
 SF-CAS              19:       -13.1301915635     8.5632    56.0000
 SF-CAS              20:       -13.1295239064     8.5813    56.0000
 SF-CAS              21:       -13.1286192955     8.6059    56.0000
 SF-CAS              22:       -13.1261240647     8.6738    56.0000
 SF-CAS              23:       -13.1243251850     8.7228    56.0000
 SF-CAS              24:       -13.1229962964     8.7589    56.0000
 SF-CAS              25:       -13.1220556406     8.7845    56.0000
 SF-CAS              26:       -13.1199130526     8.8428    56.0000
 SF-CAS              27:       -13.1187994378     8.8731    56.0000
 SF-CAS              28:       -13.1181099425     8.8919    56.0000
 SF-CAS              29:       -13.1152112554     8.9708    56.0000
 SF-CAS              30:       -13.1130316854     9.0301    56.0000
 SF-CAS              31:       -13.1123749984     9.0480    56.0000
 SF-CAS              32:       -13.1079214905     9.1692    56.0000
 SF-CAS              33:       -13.1066873805     9.2027    56.0000
 SF-CAS              34:       -13.1050724391     9.2467    56.0000
 SF-CAS              35:       -13.1012824823     9.3498    56.0000
 SF-CAS              36:       -13.0989200745     9.4141    56.0000
 SF-CAS              37:       -13.0982271392     9.4330    56.0000
 SF-CAS              38:       -13.0944501784     9.5357    56.0000
 SF-CAS              39:       -13.0903382541     9.6476    56.0000
 SF-CAS              40:       -13.0878780357     9.7146    56.0000
 SF-CAS              41:       -13.0865347253     9.7511    56.0000
 SF-CAS              42:       -13.0849031342     9.7955    56.0000
 SF-CAS              43:       -13.0836422437     9.8298    56.0000
 SF-CAS              44:       -13.0820505162     9.8731    56.0000
 SF-CAS              45:       -13.0795930640     9.9400    56.0000
 SF-CAS              46:       -13.0751170234    10.0618    56.0000
 SF-CAS              47:       -13.0730081436    10.1192    56.0000
 SF-CAS              48:       -13.0701695119    10.1964    56.0000
 SF-CAS              49:       -13.0698860669    10.2042    56.0000
 SF-CAS              50:       -13.0673570415    10.2730    56.0000
 SF-CAS              51:       -13.0633482719    10.3821    56.0000
 SF-CAS              52:       -13.0614820436    10.4328    56.0000
 SF-CAS              53:       -13.0596354768    10.4831    56.0000
 SF-CAS              54:       -13.0584091742    10.5165    56.0000
 SF-CAS              55:       -13.0553760610    10.5990    56.0000
 SF-CAS              56:       -13.0529054545    10.6662    56.0000
 SF-CAS              57:       -13.0518604012    10.6947    56.0000
 SF-CAS              58:       -13.0505722831    10.7297    56.0000
 SF-CAS              59:       -13.0498705141    10.7488    56.0000
 SF-CAS              60:       -13.0478206030    10.8046    56.0000
 SF-CAS              61:       -13.0459274638    10.8561    56.0000
 SF-CAS              62:       -13.0408618556    10.9940    56.0000
 SF-CAS              63:       -13.0344798877    11.1676    56.0000
 SF-CAS              64:       -13.0329376515    11.2096    56.0000
 SF-CAS              65:       -13.0039123965    11.9994    56.0000
 SF-CAS              66:       -13.0019640966    12.0524    56.0000
 SF-CAS              67:       -13.0004815739    12.0928    56.0000
 SF-CAS              68:       -12.9994010984    12.1222    56.0000
 SF-CAS              69:       -12.9991585506    12.1288    56.0000
 SF-CAS              70:       -12.9981660564    12.1558    56.0000
 SF-CAS              71:       -12.9974382864    12.1756    56.0000
 SF-CAS              72:       -12.9969724386    12.1883    56.0000
 SF-CAS              73:       -12.9965211239    12.2005    56.0000
 SF-CAS              74:       -12.9955751885    12.2263    56.0000
 SF-CAS              75:       -12.9951293998    12.2384    56.0000
 SF-CAS              76:       -12.9949765101    12.2426    56.0000
 SF-CAS              77:       -12.9945159467    12.2551    56.0000
 SF-CAS              78:       -12.9937695870    12.2754    56.0000
 SF-CAS              79:       -12.9933656919    12.2864    56.0000
 SF-CAS              80:       -12.9927568350    12.3030    56.0000
 SF-CAS              81:       -12.9916236633    12.3338    56.0000
 SF-CAS              82:       -12.9907807279    12.3567    56.0000
 SF-CAS              83:       -12.9902351768    12.3716    56.0000
 SF-CAS              84:       -12.9899271981    12.3800    56.0000
 SF-CAS              85:       -12.9893755094    12.3950    56.0000
 SF-CAS              86:       -12.9883941990    12.4217    56.0000
 SF-CAS              87:       -12.9880532181    12.4310    56.0000
 SF-CAS              88:       -12.9834411194    12.5565    56.0000
 SF-CAS              89:       -12.9254816168    14.1336    56.0000
 SF-CAS              90:       -12.9232341965    14.1948    56.0000
 SF-CAS              91:       -12.9182040059    14.3317    56.0000
 SF-CAS              92:       -12.9162371550    14.3852    56.0000
 SF-CAS              93:       -12.9142561514    14.4391    56.0000
 SF-CAS              94:       -12.9131770747    14.4685    56.0000
 SF-CAS              95:       -12.9114986594    14.5141    56.0000
 SF-CAS              96:       -12.9097391196    14.5620    56.0000
 SF-CAS              97:       -12.9082959949    14.6013    56.0000
 SF-CAS              98:       -12.9074267247    14.6249    56.0000
 SF-CAS              99:       -12.9066744534    14.6454    56.0000
 SF-CAS             100:       -12.9035024195    14.7317    56.0000
 SF-CAS             101:       -12.9029201256    14.7476    56.0000
 SF-CAS             102:       -12.8985317908    14.8670    56.0000
 SF-CAS             103:       -12.8965500765    14.9209    56.0000
 SF-CAS             104:       -12.8940930554    14.9878    56.0000
 SF-CAS             105:       -12.8927165614    15.0252    56.0000
 SF-CAS             106:       -12.8919225983    15.0468    56.0000
 SF-CAS             107:       -12.8905372412    15.0845    56.0000
 SF-CAS             108:       -12.8891620721    15.1220    56.0000
 SF-CAS             109:       -12.8880668447    15.1518    56.0000
 SF-CAS             110:       -12.8871747746    15.1760    56.0000
 SF-CAS             111:       -12.8858060094    15.2133    56.0000
 SF-CAS             112:       -12.8854855497    15.2220    56.0000
 SF-CAS             113:       -12.8818569283    15.3207    56.0000
 SF-CAS             114:       -12.8813517370    15.3345    56.0000
 SF-CAS             115:       -12.8808610722    15.3478    56.0000
 SF-CAS             116:       -12.8789717693    15.3993    56.0000
 SF-CAS             117:       -12.8784626411    15.4131    56.0000
 SF-CAS             118:       -12.8775996391    15.4366    56.0000
 SF-CAS             119:       -12.8761626161    15.4757    56.0000
 SF-CAS             120:       -12.8747028228    15.5154    56.0000
 SF-CAS             121:       -12.8740319541    15.5337    56.0000
 SF-CAS             122:       -12.8736985787    15.5427    56.0000
 SF-CAS             123:       -12.8726832144    15.5704    56.0000
 SF-CAS             124:       -12.8715345246    15.6016    56.0000
 SF-CAS             125:       -12.8709692858    15.6170    56.0000
 SF-CAS             126:       -12.8693962989    15.6598    56.0000
 SF-CAS             127:       -12.8687604058    15.6771    56.0000
 SF-CAS             128:       -12.8682402530    15.6913    56.0000
 SF-CAS             129:       -12.8669555701    15.7262    56.0000
 SF-CAS             130:       -12.8664573481    15.7398    56.0000
 SF-CAS             131:       -12.8656229339    15.7625    56.0000
 SF-CAS             132:       -12.8651710500    15.7748    56.0000
 SF-CAS             133:       -12.8633041246    15.8256    56.0000
 SF-CAS             134:       -12.8627912159    15.8396    56.0000
 SF-CAS             135:       -12.8618179951    15.8660    56.0000
 SF-CAS             136:       -12.8608608095    15.8921    56.0000
 SF-CAS             137:       -12.8595559947    15.9276    56.0000
 SF-CAS             138:       -12.8592567133    15.9357    56.0000
 SF-CAS             139:       -12.8566385396    16.0070    56.0000
 SF-CAS             140:       -12.8561182586    16.0211    56.0000
 SF-CAS             141:       -12.8552521695    16.0447    56.0000
 SF-CAS             142:       -12.8547102475    16.0595    56.0000
 SF-CAS             143:       -12.8534861442    16.0928    56.0000
 SF-CAS             144:       -12.8531955138    16.1007    56.0000
 SF-CAS             145:       -12.8522251770    16.1271    56.0000
 SF-CAS             146:       -12.8515224687    16.1462    56.0000
 SF-CAS             147:       -12.8508733292    16.1639    56.0000
 SF-CAS             148:       -12.8500880073    16.1852    56.0000
 SF-CAS             149:       -12.8492431037    16.2082    56.0000
 SF-CAS             150:       -12.8489910762    16.2151    56.0000
 SF-CAS             151:       -12.8486453197    16.2245    56.0000
 SF-CAS             152:       -12.8479719100    16.2428    56.0000
 SF-CAS             153:       -12.8462811814    16.2888    56.0000
 SF-CAS             154:       -12.8456978514    16.3047    56.0000
 SF-CAS             155:       -12.8449460304    16.3252    56.0000
 SF-CAS             156:       -12.8447878495    16.3295    56.0000
 SF-CAS             157:       -12.8441872011    16.3458    56.0000
 SF-CAS             158:       -12.8429023136    16.3808    56.0000
 SF-CAS             159:       -12.8421753514    16.4005    56.0000
 SF-CAS             160:       -12.8408375335    16.4370    56.0000
 SF-CAS             161:       -12.8402019460    16.4542    56.0000
 SF-CAS             162:       -12.8397309558    16.4671    56.0000
 SF-CAS             163:       -12.8395458393    16.4721    56.0000
 SF-CAS             164:       -12.8389672779    16.4878    56.0000
 SF-CAS             165:       -12.8371701099    16.5367    56.0000
 SF-CAS             166:       -12.8363962719    16.5578    56.0000
 SF-CAS             167:       -12.8353757320    16.5856    56.0000
 SF-CAS             168:       -12.8343606794    16.6132    56.0000
 SF-CAS             169:       -12.8330070588    16.6500    56.0000
 SF-CAS             170:       -12.8328128607    16.6553    56.0000
 SF-CAS             171:       -12.8318193673    16.6824    56.0000
 SF-CAS             172:       -12.8310766830    16.7026    56.0000
 SF-CAS             173:       -12.8306364641    16.7145    56.0000
 SF-CAS             174:       -12.8293324167    16.7500    56.0000
 SF-CAS             175:       -12.8288205446    16.7640    56.0000
 SF-CAS             176:       -12.8282676656    16.7790    56.0000
 SF-CAS             177:       -12.8276193554    16.7966    56.0000
 SF-CAS             178:       -12.8259570561    16.8419    56.0000
 SF-CAS             179:       -12.8251776096    16.8631    56.0000
 SF-CAS             180:       -12.8241653982    16.8906    56.0000
 SF-CAS             181:       -12.8229147222    16.9247    56.0000
 SF-CAS             182:       -12.8218926711    16.9525    56.0000
 SF-CAS             183:       -12.8215742185    16.9611    56.0000
 SF-CAS             184:       -12.8211039739    16.9739    56.0000
 SF-CAS             185:       -12.8203342806    16.9949    56.0000
 SF-CAS             186:       -12.8198354806    17.0085    56.0000
 SF-CAS             187:       -12.8187541440    17.0379    56.0000
 SF-CAS             188:       -12.8177322610    17.0657    56.0000
 SF-CAS             189:       -12.8173740315    17.0754    56.0000
 SF-CAS             190:       -12.8167004905    17.0938    56.0000
 SF-CAS             191:       -12.8161504405    17.1087    56.0000
 SF-CAS             192:       -12.8148817109    17.1433    56.0000
 SF-CAS             193:       -12.8129248241    17.1965    56.0000
 SF-CAS             194:       -12.8123912926    17.2110    56.0000
 SF-CAS             195:       -12.8111652968    17.2444    56.0000
 SF-CAS             196:       -12.8095835903    17.2874    56.0000
 SF-CAS             197:       -12.8088554774    17.3072    56.0000
 SF-CAS             198:       -12.8084422360    17.3185    56.0000
 SF-CAS             199:       -12.8072878222    17.3499    56.0000
 SF-CAS             200:       -12.8067397119    17.3648    56.0000
 SF-CAS             201:       -12.8060803777    17.3828    56.0000
 SF-CAS             202:       -12.8039901048    17.4396    56.0000
 SF-CAS             203:       -12.8015042598    17.5073    56.0000
 SF-CAS             204:       -12.8007918199    17.5267    56.0000
 SF-CAS             205:       -12.7978729840    17.6061    56.0000
 SF-CAS             206:       -12.7961920398    17.6518    56.0000
 SF-CAS             207:       -12.7938756938    17.7149    56.0000
 SF-CAS             208:       -12.7930895128    17.7363    56.0000
 SF-CAS             209:       -12.7879942957    17.8749    56.0000
 SF-CAS             210:       -12.7871337303    17.8983    56.0000
 SF-CAS             211:       -12.7866945513    17.9103    56.0000
 SF-CAS             212:       -12.7857330663    17.9364    56.0000
 SF-CAS             213:       -12.7846148722    17.9669    56.0000
 SF-CAS             214:       -12.7843578811    17.9739    56.0000
 SF-CAS             215:       -12.7836274918    17.9937    56.0000
 SF-CAS             216:       -12.7829643869    18.0118    56.0000
 SF-CAS             217:       -12.7816679499    18.0471    56.0000
 SF-CAS             218:       -12.7804937841    18.0790    56.0000
 SF-CAS             219:       -12.7801449796    18.0885    56.0000
 SF-CAS             220:       -12.7785733313    18.1313    56.0000
 SF-CAS             221:       -12.6492642260    21.6500    56.0000
 SF-CAS             222:       -12.6464800206    21.7257    56.0000
 SF-CAS             223:       -12.6429972317    21.8205    56.0000
 SF-CAS             224:       -12.6403516235    21.8925    56.0000
 SF-CAS             225:       -12.6371584670    21.9794    56.0000
 SF-CAS             226:       -12.6358366068    22.0154    56.0000
 SF-CAS             227:       -12.6311641772    22.1425    56.0000
 SF-CAS             228:       -12.6289243835    22.2035    56.0000
 SF-CAS             229:       -12.6270407995    22.2547    56.0000
 SF-CAS             230:       -12.6241912981    22.3323    56.0000
 SF-CAS             231:       -12.6209781832    22.4197    56.0000
 SF-CAS             232:       -12.6194405440    22.4615    56.0000
 SF-CAS             233:       -12.6169711842    22.5287    56.0000
 SF-CAS             234:       -12.6151466949    22.5784    56.0000
 SF-CAS             235:       -12.6107861354    22.6970    56.0000
 SF-CAS             236:       -12.6068423380    22.8043    56.0000
 SF-CAS             237:       -12.6025154395    22.9221    56.0000
 SF-CAS             238:       -12.6016469481    22.9457    56.0000
 SF-CAS             239:       -12.5979526933    23.0462    56.0000
 SF-CAS             240:       -12.5959955449    23.0995    56.0000
 SF-CAS             241:       -12.5933433204    23.1717    56.0000
 SF-CAS             242:       -12.5922369627    23.2018    56.0000
 SF-CAS             243:       -12.5913237197    23.2266    56.0000
 SF-CAS             244:       -12.5900596798    23.2610    56.0000
 SF-CAS             245:       -12.5880882316    23.3147    56.0000
 SF-CAS             246:       -12.5843181314    23.4173    56.0000
 SF-CAS             247:       -12.5830853793    23.4508    56.0000
 SF-CAS             248:       -12.5808564569    23.5115    56.0000
 SF-CAS             249:       -12.5755157813    23.6568    56.0000
 SF-CAS             250:       -12.5736878036    23.7065    56.0000
 SF-CAS             251:       -12.5718304822    23.7571    56.0000
 SF-CAS             252:       -12.5681476785    23.8573    56.0000
 SF-CAS             253:       -12.5648295485    23.9476    56.0000
 SF-CAS             254:       -12.5611140883    24.0487    56.0000
 SF-CAS             255:       -12.5579476896    24.1349    56.0000
 SF-CAS             256:       -12.5552575515    24.2081    56.0000
 ===================================================================

              Active Space Coefficients > 0.20
 -------------------------------------------------------------------
 State  1                       Configuration         Coeff.   <S^2>
 -------------------------------------------------------------------
          11111111111111_1 | ______________1_      -0.304570  57.000
          1111111111111_11 | _____________1__      -0.426402  57.000
          11111111111_1111 | ___________1____       0.292081  57.000
          11111111_1111111 | ________1_______       0.371106  57.000
          1111_11111111111 | ____1___________      -0.290493  57.000
          1_11111111111111 | _1______________      -0.225122  57.000
 -------------------------------------------------------------------
 State  2                       Configuration         Coeff.   <S^2>
 -------------------------------------------------------------------
          11111111111111_1 | ______________1_       0.412564  57.000
          1111111111111_11 | _____________1__      -0.527876  57.000
          111111111111_111 | ____________1___      -0.277319  57.000
          11111111_1111111 | ________1_______      -0.343595  57.000
          11_1111111111111 | __1_____________       0.280723  57.000
 -------------------------------------------------------------------
 State  3                       Configuration         Coeff.   <S^2>
 -------------------------------------------------------------------
          11111111111111_1 | ______________1_       0.425063  57.000
          11111111111_1111 | ___________1____       0.318988  57.000
          111111111_111111 | _________1______      -0.229359  57.000
          11111111_1111111 | ________1_______       0.267655  57.000
          11111_1111111111 | _____1__________       0.371322  57.000
          1111_11111111111 | ____1___________       0.234729  57.000
          1_11111111111111 | _1______________      -0.247014  57.000
          _111111111111111 | 1_______________      -0.224695  57.000
 -------------------------------------------------------------------
 State  4                       Configuration         Coeff.   <S^2>
 -------------------------------------------------------------------
          111111111111111_ | _______________1      -0.338968  57.000
          111111111111_111 | ____________1___      -0.305493  57.000
          11111111111_1111 | ___________1____       0.262171  57.000
          1111111_11111111 | _______1________      -0.493492  57.000
          111_111111111111 | ___1____________      -0.365801  57.000
          _111111111111111 | 1_______________      -0.333762  57.000
 -------------------------------------------------------------------
 State  5                       Configuration         Coeff.   <S^2>
 -------------------------------------------------------------------
          111111111111_111 | ____________1___      -0.292080  57.000
          11111111111_1111 | ___________1____      -0.505899  57.000
          11111111_1111111 | ________1_______       0.386205  57.000
          111111_111111111 | ______1_________      -0.298466  57.000
          111_111111111111 | ___1____________      -0.217491  57.000
          11_1111111111111 | __1_____________      -0.290422  57.000
 -------------------------------------------------------------------
 State  6                       Configuration         Coeff.   <S^2>
 -------------------------------------------------------------------
          111111111111111_ | _______________1      -0.289536  57.000
          11111111111111_1 | ______________1_       0.303363  57.000
          1111111111_11111 | __________1_____       0.313343  57.000
          11111111_1111111 | ________1_______       0.208279  57.000
          1111111_11111111 | _______1________       0.358456  57.000
          11111_1111111111 | _____1__________      -0.306914  57.000
          1111_11111111111 | ____1___________      -0.462591  57.000
 -------------------------------------------------------------------
 State  7                       Configuration         Coeff.   <S^2>
 -------------------------------------------------------------------
          111111111111111_ | _______________1       0.414868  57.000
          111111111111_111 | ____________1___      -0.315269  57.000
          1111111111_11111 | __________1_____       0.259226  57.000
          11111111_1111111 | ________1_______      -0.314818  57.000
          11111_1111111111 | _____1__________      -0.376520  57.000
          111_111111111111 | ___1____________      -0.211030  57.000
          1_11111111111111 | _1______________      -0.279109  57.000
 -------------------------------------------------------------------
 State  8                       Configuration         Coeff.   <S^2>
 -------------------------------------------------------------------
          111111111111111_ | _______________1      -0.215205  57.000
          1111111111111_11 | _____________1__      -0.298558  57.000
          111111_111111111 | ______1_________       0.239216  57.000
          1111_11111111111 | ____1___________       0.489809  57.000
          111_111111111111 | ___1____________       0.204110  57.000
          11_1111111111111 | __1_____________      -0.527787  57.000
 -------------------------------------------------------------------
 State  9                       Configuration         Coeff.   <S^2>
 -------------------------------------------------------------------
          111111111111111_ | _______________1      -0.261971  57.000
          111111111111_111 | ____________1___      -0.405100  57.000
          1111111_11111111 | _______1________       0.250749  57.000
          11111_1111111111 | _____1__________       0.367862  57.000
          111_111111111111 | ___1____________      -0.233650  57.000
          11_1111111111111 | __1_____________       0.231808  57.000
          _111111111111111 | 1_______________       0.451009  57.000
 -------------------------------------------------------------------
 State  10                      Configuration         Coeff.   <S^2>
 -------------------------------------------------------------------
          1111111111_11111 | __________1_____       0.337263  57.000
          1111111_11111111 | _______1________      -0.293174  57.000
          111111_111111111 | ______1_________      -0.571463  57.000
          111_111111111111 | ___1____________       0.401588  57.000
          _111111111111111 | 1_______________       0.296749  57.000
 -------------------------------------------------------------------
 State  11                      Configuration         Coeff.   <S^2>
 -------------------------------------------------------------------
          111111111111_111 | ____________1___       0.237929  57.000
          11111111111_1111 | ___________1____       0.216870  57.000
          1111111111_11111 | __________1_____      -0.497780  57.000
          111111_111111111 | ______1_________      -0.294625  57.000
          11111_1111111111 | _____1__________      -0.255649  57.000
          111_111111111111 | ___1____________      -0.280628  57.000
          11_1111111111111 | __1_____________      -0.244989  57.000
          _111111111111111 | 1_______________       0.268656  57.000
 -------------------------------------------------------------------
 State  12                      Configuration         Coeff.   <S^2>
 -------------------------------------------------------------------
          111111111_111111 | _________1______      -0.658606  57.000
          1_11111111111111 | _1______________       0.593585  57.000
 -------------------------------------------------------------------
 State  13                      Configuration         Coeff.   <S^2>
 -------------------------------------------------------------------
          11111111111111_1 | ______________1_       0.255901  57.000
          11111111_1111111 | ________1_______      -0.328701  57.000
          1111111_11111111 | _______1________      -0.284629  57.000
          111111_111111111 | ______1_________       0.296179  57.000
          11111_1111111111 | _____1__________       0.359034  57.000
          1111_11111111111 | ____1___________      -0.369151  57.000
          11_1111111111111 | __1_____________      -0.380969  57.000
          _111111111111111 | 1_______________       0.299730  57.000
 -------------------------------------------------------------------
 State  14                      Configuration         Coeff.   <S^2>
 -------------------------------------------------------------------
          1111111111111_11 | _____________1__       0.388247  57.000
          111111111111_111 | ____________1___      -0.408176  57.000
          1111111111_11111 | __________1_____      -0.425217  57.000
          11111111_1111111 | ________1_______       0.226761  57.000
          11111_1111111111 | _____1__________      -0.240306  57.000
          1111_11111111111 | ____1___________       0.220972  57.000
          111_111111111111 | ___1____________       0.436433  57.000
          11_1111111111111 | __1_____________       0.247594  57.000
 -------------------------------------------------------------------
 State  15                      Configuration         Coeff.   <S^2>
 -------------------------------------------------------------------
          111111111111111_ | _______________1      -0.385254  57.000
          11111111111111_1 | ______________1_      -0.286066  57.000
          11111111111_1111 | ___________1____      -0.367341  57.000
          111111111_111111 | _________1______      -0.409868  57.000
          1111111_11111111 | _______1________       0.287451  57.000
          111111_111111111 | ______1_________      -0.292419  57.000
          1_11111111111111 | _1______________      -0.412689  57.000
          _111111111111111 | 1_______________      -0.308894  57.000
 -------------------------------------------------------------------
 State  16                      Configuration         Coeff.   <S^2>
 -------------------------------------------------------------------
          111111111111111_ | _______________1      -0.250000  57.000
          11111111111111_1 | ______________1_       0.250000  57.000
          1111111111111_11 | _____________1__      -0.250000  57.000
          111111111111_111 | ____________1___       0.250000  57.000
          11111111111_1111 | ___________1____      -0.250000  57.000
          1111111111_11111 | __________1_____       0.250000  57.000
          111111111_111111 | _________1______      -0.250000  57.000
          11111111_1111111 | ________1_______       0.250000  57.000
          1111111_11111111 | _______1________      -0.250000  57.000
          111111_111111111 | ______1_________       0.250000  57.000
          11111_1111111111 | _____1__________      -0.250000  57.000
          1111_11111111111 | ____1___________       0.250000  57.000
          111_111111111111 | ___1____________      -0.250000  57.000
          11_1111111111111 | __1_____________       0.250000  57.000
          1_11111111111111 | _1______________      -0.250000  57.000
          _111111111111111 | 1_______________       0.250000  57.000
 -------------------------------------------------------------------
 State  17                      Configuration         Coeff.   <S^2>
 -------------------------------------------------------------------
 -------------------------------------------------------------------
 State  18                      Configuration         Coeff.   <S^2>
 -------------------------------------------------------------------
          1111111111111_11 | ________1_______       0.258819  56.000
          1111111111111_11 | ___________1____       0.254753  56.000
          1111111111111_11 | _______________1      -0.251815  56.000
 -------------------------------------------------------------------
 State  19                      Configuration         Coeff.   <S^2>
 -------------------------------------------------------------------
 -------------------------------------------------------------------
 State  20                      Configuration         Coeff.   <S^2>
 -------------------------------------------------------------------
          _111111111111111 | ______1_________      -0.215580  56.000
          _111111111111111 | _______1________       0.260390  56.000
          _111111111111111 | ______________1_       0.266892  56.000
 -------------------------------------------------------------------
 State  21                      Configuration         Coeff.   <S^2>
 -------------------------------------------------------------------
          111_111111111111 | __________1_____      -0.208857  56.000
          111_111111111111 | ____________1___       0.247488  56.000
          111_111111111111 | _____________1__      -0.308793  56.000
 -------------------------------------------------------------------
 State  22                      Configuration         Coeff.   <S^2>
 -------------------------------------------------------------------
          1111111111111_11 | ____________1___      -0.203630  56.000
          1111111111_11111 | ____________1___      -0.210345  56.000
          1111_11111111111 | ________1_______       0.212068  56.000
          11_1111111111111 | _____1__________       0.236681  56.000
          11_1111111111111 | ________1_______       0.255888  56.000
 -------------------------------------------------------------------
 State  23                      Configuration         Coeff.   <S^2>
 -------------------------------------------------------------------
          11111_1111111111 | ____1___________      -0.228137  56.000
          11111_1111111111 | ________1_______      -0.228801  56.000
 -------------------------------------------------------------------
 State  24                      Configuration         Coeff.   <S^2>
 -------------------------------------------------------------------
          111111111_111111 | _1______________      -0.202741  56.000
          111111111_111111 | ___________1____       0.322960  56.000
          111111111_111111 | _______________1      -0.316209  56.000
          1_11111111111111 | ___________1____       0.303386  56.000
          1_11111111111111 | _______________1      -0.264881  56.000
 -------------------------------------------------------------------
 State  25                      Configuration         Coeff.   <S^2>
 -------------------------------------------------------------------
          11111111_1111111 | _____1__________      -0.207425  56.000
          111111_111111111 | ______________1_      -0.228614  56.000
          _111111111111111 | _______1________      -0.228794  56.000
 -------------------------------------------------------------------
 State  26                      Configuration         Coeff.   <S^2>
 -------------------------------------------------------------------
          11111111111111_1 | _______1________       0.230499  56.000
          1111111111_11111 | _____________1__       0.223435  56.000
          111111_111111111 | 1_______________       0.200510  56.000
          111111_111111111 | _______1________       0.208541  56.000
 -------------------------------------------------------------------
 State  27                      Configuration         Coeff.   <S^2>
 -------------------------------------------------------------------
          111111111111_111 | ___1____________       0.247397  56.000
          111111111111_111 | __________1_____      -0.215829  56.000
          111111111111_111 | _____________1__      -0.253694  56.000
 -------------------------------------------------------------------
 State  28                      Configuration         Coeff.   <S^2>
 -------------------------------------------------------------------
          1111111_11111111 | 1_______________      -0.221649  56.000
          1111111_11111111 | ______1_________       0.262668  56.000
          1111111_11111111 | ______________1_      -0.268890  56.000
 -------------------------------------------------------------------
 State  29                      Configuration         Coeff.   <S^2>
 -------------------------------------------------------------------
          111111111111111_ | _1______________       0.202146  56.000
          111111111111111_ | _________1______      -0.210507  56.000
          111111111111111_ | ___________1____      -0.256674  56.000
 -------------------------------------------------------------------
 State  30                      Configuration         Coeff.   <S^2>
 -------------------------------------------------------------------
          111111111111111_ | _1______________      -0.206839  56.000
          1111111111111_11 | ___________1____       0.206121  56.000
          11111_1111111111 | __1_____________       0.214828  56.000
 -------------------------------------------------------------------
 State  31                      Configuration         Coeff.   <S^2>
 -------------------------------------------------------------------
          1111111_11111111 | 1_______________      -0.207538  56.000
 -------------------------------------------------------------------
 State  32                      Configuration         Coeff.   <S^2>
 -------------------------------------------------------------------
          11111111111_1111 | ________1_______       0.204900  56.000
          11111111111_1111 | _____________1__       0.200847  56.000
 -------------------------------------------------------------------
 State  33                      Configuration         Coeff.   <S^2>
 -------------------------------------------------------------------
          111111111111_111 | _______1________       0.252619  56.000
          111111111111_111 | ______________1_       0.252762  56.000
 -------------------------------------------------------------------
 State  34                      Configuration         Coeff.   <S^2>
 -------------------------------------------------------------------
 -------------------------------------------------------------------
 State  35                      Configuration         Coeff.   <S^2>
 -------------------------------------------------------------------
 -------------------------------------------------------------------
 State  36                      Configuration         Coeff.   <S^2>
 -------------------------------------------------------------------
          11111111_1111111 | _1______________       0.232016  56.000
          11111111_1111111 | _________1______      -0.215725  56.000
          11111111_1111111 | ___________1____      -0.269763  56.000
          11111111_1111111 | _______________1       0.285641  56.000
 -------------------------------------------------------------------
 State  37                      Configuration         Coeff.   <S^2>
 -------------------------------------------------------------------
          111111111111_111 | _______1________      -0.229644  56.000
          111111111111_111 | ______________1_      -0.227058  56.000
 -------------------------------------------------------------------
 State  38                      Configuration         Coeff.   <S^2>
 -------------------------------------------------------------------
 -------------------------------------------------------------------
 State  39                      Configuration         Coeff.   <S^2>
 -------------------------------------------------------------------
          11111_1111111111 | ______________1_      -0.261290  56.000
 -------------------------------------------------------------------
 State  40                      Configuration         Coeff.   <S^2>
 -------------------------------------------------------------------
          1111111_11111111 | ___________1____       0.200200  56.000
          1111111_11111111 | ____________1___       0.206176  56.000
          111111_111111111 | _1______________       0.218632  56.000
          111111_111111111 | _________1______      -0.209655  56.000
          111111_111111111 | ___________1____      -0.303751  56.000
          111111_111111111 | _______________1       0.213435  56.000
 -------------------------------------------------------------------
 State  41                      Configuration         Coeff.   <S^2>
 -------------------------------------------------------------------
          1111111111111_11 | _______1________       0.228639  56.000
          1111111111111_11 | ______________1_       0.217655  56.000
          1111111111_11111 | 1_______________       0.201674  56.000
          1111111111_11111 | ______1_________      -0.206538  56.000
          1111111111_11111 | _______1________       0.289439  56.000
          1111111111_11111 | ______________1_       0.235072  56.000
 -------------------------------------------------------------------
 State  42                      Configuration         Coeff.   <S^2>
 -------------------------------------------------------------------
          111111111111111_ | _____________1__      -0.220523  56.000
 -------------------------------------------------------------------
 State  43                      Configuration         Coeff.   <S^2>
 -------------------------------------------------------------------
          11111111111_1111 | ________1_______       0.205497  56.000
 -------------------------------------------------------------------
 State  44                      Configuration         Coeff.   <S^2>
 -------------------------------------------------------------------
 -------------------------------------------------------------------
 State  45                      Configuration         Coeff.   <S^2>
 -------------------------------------------------------------------
 -------------------------------------------------------------------
 State  46                      Configuration         Coeff.   <S^2>
 -------------------------------------------------------------------
 -------------------------------------------------------------------
 State  47                      Configuration         Coeff.   <S^2>
 -------------------------------------------------------------------
          11111_1111111111 | ______________1_       0.225762  56.000
 -------------------------------------------------------------------
 State  48                      Configuration         Coeff.   <S^2>
 -------------------------------------------------------------------
 -------------------------------------------------------------------
 State  49                      Configuration         Coeff.   <S^2>
 -------------------------------------------------------------------
          1111111_11111111 | ___________1____       0.204894  56.000
 -------------------------------------------------------------------
 State  50                      Configuration         Coeff.   <S^2>
 -------------------------------------------------------------------
          _111111111111111 | ___________1____       0.205292  56.000
 -------------------------------------------------------------------
 State  51                      Configuration         Coeff.   <S^2>
 -------------------------------------------------------------------
          1111111111_11111 | _______1________       0.234130  56.000
          111_111111111111 | 1_______________      -0.248390  56.000
          111_111111111111 | ______1_________       0.253063  56.000
          111_111111111111 | _______1________      -0.288038  56.000
          111_111111111111 | ______________1_      -0.272933  56.000
 -------------------------------------------------------------------
 State  52                      Configuration         Coeff.   <S^2>
 -------------------------------------------------------------------
          1111111111_11111 | ____1___________       0.205075  56.000
          1111111111_11111 | _____1__________       0.214552  56.000
          1111111111_11111 | ________1_______       0.202188  56.000
 -------------------------------------------------------------------
 State  53                      Configuration         Coeff.   <S^2>
 -------------------------------------------------------------------
 -------------------------------------------------------------------
 State  54                      Configuration         Coeff.   <S^2>
 -------------------------------------------------------------------
[...]
  -7.3640e-04   1.0560e-04  -6.4098e-04   7.0931e-05  -3.4674e-04  -1.4816e-04   8.3424e-01  -3.7013e-05  -1.0183e-04  -1.4070e-04  -1.6729e-06   1.4816e-04   5.1083e-04   9.9361e-05   2.7693e-04   1.3681e-14
   4.5237e-04   7.6881e-04  -3.8951e-05   2.6061e-05  -2.4774e-05  -1.9006e-04  -3.7013e-05   8.3517e-01   3.0165e-04  -1.0449e-04   3.6382e-04   1.6338e-04   1.7987e-04  -5.0240e-04  -2.2043e-04   7.3174e-15
   7.4122e-04  -9.2778e-05   1.6078e-04   2.8145e-04  -3.1945e-04   4.3052e-04  -1.0183e-04   3.0165e-04   8.3559e-01  -6.8735e-05  -2.2778e-05   4.3186e-06  -3.8035e-04  -3.9959e-05  -4.2528e-04   6.1667e-15
   1.3218e-04  -1.2809e-04  -2.4190e-04   5.5758e-04  -3.3816e-04  -3.4557e-04  -1.4070e-04  -1.0449e-04  -6.8735e-05   8.3559e-01   2.2331e-04   9.3995e-05   4.7019e-04   1.4277e-04  -3.5260e-04  -5.2362e-15
  -4.5983e-04   2.3336e-04   3.4569e-04  -8.2004e-05  -8.5131e-04   2.1294e-04  -1.6729e-06   3.6382e-04  -2.2778e-05   2.2331e-04   8.3614e-01  -1.1805e-04   2.3157e-04  -3.9796e-04  -6.4319e-04   2.8845e-15
   2.1116e-04   6.1657e-04  -3.7780e-04   2.1783e-05   5.3791e-05  -2.4179e-04   1.4816e-04   1.6338e-04   4.3186e-06   9.3995e-05  -1.1805e-04   8.3650e-01   7.1657e-05  -5.9908e-04  -1.2076e-04  -6.8997e-16
   9.4212e-04  -3.7412e-04   6.8148e-04  -4.3508e-04  -1.3331e-05   5.1036e-04   5.1083e-04   1.7987e-04  -3.8035e-04   4.7019e-04   2.3157e-04   7.1657e-05   9.8876e-01  -5.8360e-05  -7.7350e-05   9.0342e-15
   2.6478e-04   6.8990e-06  -3.3459e-04  -5.8250e-04  -9.2440e-04   1.3315e-04   9.9361e-05  -5.0240e-04  -3.9959e-05   1.4277e-04  -3.9796e-04  -5.9908e-04  -5.8360e-05   9.8937e-01  -1.0141e-04   6.5743e-15
   3.6630e-04   2.5335e-04   7.1800e-04   4.7788e-04  -5.1844e-04  -6.1640e-04   2.7693e-04  -2.2043e-04  -4.2528e-04  -3.5260e-04  -6.4319e-04  -1.2076e-04  -7.7350e-05  -1.0141e-04   9.9072e-01   7.5739e-15
  -6.8353e-15  -9.2892e-15   2.9877e-15  -1.2763e-14  -1.6571e-15  -5.9374e-15   1.3681e-14   7.3174e-15   6.1667e-15  -5.2362e-15   2.8845e-15  -6.8997e-16   9.0342e-15   6.5743e-15   7.5739e-15   1.0000e+00


 Effective Hamiltonian
   1.6101e-02   1.4229e-02   1.2539e-02   1.4311e-02   7.5486e-05   8.3262e-05   1.5606e-03   1.8934e-05  -8.1516e-05   8.8199e-05   9.9477e-04   8.4360e-04   3.7366e-05   3.2012e-05   1.0878e-03   1.4335e-04
   1.4229e-02   1.9490e-02   1.4170e-02   1.3864e-02  -9.5154e-06  -7.9738e-06  -5.6309e-05  -1.7027e-06  -1.0752e-05   1.1351e-05   5.7646e-05   5.5903e-05   3.6139e-06   1.1795e-05   1.6781e-04   9.1100e-05
   1.2539e-02   1.4170e-02   1.7347e-02   1.4470e-02   1.9891e-05   5.9219e-05   1.4235e-03   2.3475e-04  -8.1552e-06   7.7308e-06   4.4867e-05   4.9684e-05   6.7710e-05   8.6075e-05   1.5032e-03   5.0290e-05
   1.4311e-02   1.3864e-02   1.4470e-02   1.9422e-02  -2.3701e-06   1.0763e-06   1.2970e-05   8.9362e-06  -1.0308e-05   7.7518e-06   7.0885e-05   4.9251e-05  -1.0260e-05  -1.5451e-05  -1.0721e-04  -8.1959e-06
   7.5486e-05  -9.5154e-06   1.9891e-05  -2.3701e-06   1.8145e-02   1.4176e-02   1.3252e-02   1.4352e-02   9.3250e-05   1.5520e-03   7.6269e-05   6.2895e-05   2.7078e-04   8.3569e-06  -1.7395e-05   9.9946e-06
   8.3262e-05  -7.9738e-06   5.9219e-05   1.0763e-06   1.4176e-02   1.9211e-02   1.4520e-02   1.4103e-02  -7.5086e-06  -2.4268e-05   1.3024e-06  -6.6942e-06  -1.1137e-05  -3.2451e-06  -2.2021e-05  -8.0921e-06
   1.5606e-03  -5.6309e-05   1.4235e-03   1.2970e-05   1.3252e-02   1.4520e-02   1.5303e-02   1.3422e-02   6.7905e-05   1.8013e-03   1.3559e-04   3.2647e-05   2.4419e-05   1.6226e-05   5.2104e-04   2.7669e-05
   1.8934e-05  -1.7027e-06   2.3475e-04   8.9362e-06   1.4352e-02   1.4103e-02   1.3422e-02   1.7790e-02  -7.4608e-06  -6.2313e-05  -9.0411e-08   1.1962e-06   1.8119e-04   8.4133e-05   1.9109e-03   2.9129e-05
  -8.1516e-05  -1.0752e-05  -8.1552e-06  -1.0308e-05   9.3250e-05  -7.5086e-06   6.7905e-05  -7.4608e-06   1.9317e-02   1.4357e-02   1.4106e-02   1.4202e-02   1.2371e-05  -9.1925e-06   3.1595e-06   4.1481e-05
   8.8199e-05   1.1351e-05   7.7308e-06   7.7518e-06   1.5520e-03  -2.4268e-05   1.8013e-03  -6.2313e-05   1.4357e-02   1.5513e-02   1.3992e-02   1.3476e-02   1.1965e-03   3.4006e-05   1.0837e-04   6.2600e-06
   9.9477e-04   5.7646e-05   4.4867e-05   7.0885e-05   7.6269e-05   1.3024e-06   1.3559e-04  -9.0411e-08   1.4106e-02   1.3992e-02   1.8911e-02   1.3659e-02  -1.4273e-05  -8.7233e-06   1.4926e-06   3.7400e-05
   8.4360e-04   5.5903e-05   4.9684e-05   4.9251e-05   6.2895e-05  -6.6942e-06   3.2647e-05   1.1962e-06   1.4202e-02   1.3476e-02   1.3659e-02   1.7658e-02   1.1390e-03  -4.3790e-05   3.1556e-06   8.8274e-04
   3.7366e-05   3.6139e-06   6.7710e-05  -1.0260e-05   2.7078e-04  -1.1137e-05   2.4419e-05   1.8119e-04   1.2371e-05   1.1965e-03  -1.4273e-05   1.1390e-03   1.7662e-02   1.4248e-02   1.3714e-02   1.3543e-02
   3.2012e-05   1.1795e-05   8.6075e-05  -1.5451e-05   8.3569e-06  -3.2451e-06   1.6226e-05   8.4133e-05  -9.1925e-06   3.4006e-05  -8.7233e-06  -4.3790e-05   1.4248e-02   1.9397e-02   1.4099e-02   1.4128e-02
   1.0878e-03   1.6781e-04   1.5032e-03  -1.0721e-04  -1.7395e-05  -2.2021e-05   5.2104e-04   1.9109e-03   3.1595e-06   1.0837e-04   1.4926e-06   3.1556e-06   1.3714e-02   1.4099e-02   1.4877e-02   1.4213e-02
   1.4335e-04   9.1100e-05   5.0290e-05  -8.1959e-06   9.9946e-06  -8.0921e-06   2.7669e-05   2.9129e-05   4.1481e-05   6.2600e-06   3.7400e-05   8.8274e-04   1.3543e-02   1.4128e-02   1.4213e-02   1.8878e-02


 Energies of Heff (should be the same)
      1 =  -0.00000000 cm-1
      2 = 227.00036464 cm-1
      3 = 479.16403694 cm-1
      4 = 779.79518636 cm-1
      5 = 801.31450156 cm-1
      6 = 932.62501095 cm-1
      7 = 1013.95365793 cm-1
      8 = 1108.65789766 cm-1
      9 = 1116.04036429 cm-1
     10 = 1165.46286993 cm-1
     11 = 1180.89012916 cm-1
     12 = 1235.82284952 cm-1
     13 = 12900.31949674 cm-1
     14 = 12950.86070033 cm-1
     15 = 13041.57055452 cm-1
     16 = 13621.54735135 cm-1

 Exchange coupling constants:
   	H = J * Sa * Sb 
   		or
   	H = -2J' * Sa * Sb 
        1
        1
        1
        1
        1
        1
        1
        1
        1
        1
        1
        1
        1
        1
        1
        1

 J( 0, 1) =          6245.652077  : J'( 0, 1) =         -3122.826039  (cm-1)
 J( 0, 2) =          5504.003062  : J'( 0, 2) =         -2752.001531  (cm-1)
 J( 0, 3) =          6281.990171  : J'( 0, 3) =         -3140.995086  (cm-1)
 J( 0, 4) =            33.134440  : J'( 0, 4) =           -16.567220  (cm-1)
 J( 0, 5) =            36.547887  : J'( 0, 5) =           -18.273944  (cm-1)
 J( 0, 6) =           685.029453  : J'( 0, 6) =          -342.514727  (cm-1)
 J( 0, 7) =             8.311115  : J'( 0, 7) =            -4.155557  (cm-1)
 J( 0, 8) =           -35.781370  : J'( 0, 8) =            17.890685  (cm-1)
 J( 0, 9) =            38.715072  : J'( 0, 9) =           -19.357536  (cm-1)
 J( 0,10) =           436.655177  : J'( 0,10) =          -218.327589  (cm-1)
 J( 0,11) =           370.297765  : J'( 0,11) =          -185.148882  (cm-1)
 J( 0,12) =            16.401572  : J'( 0,12) =            -8.200786  (cm-1)
 J( 0,13) =            14.051621  : J'( 0,13) =            -7.025810  (cm-1)
 J( 0,14) =           477.486605  : J'( 0,14) =          -238.743303  (cm-1)
 J( 0,15) =            62.924566  : J'( 0,15) =           -31.462283  (cm-1)
 J( 1, 2) =          6219.744659  : J'( 1, 2) =         -3109.872329  (cm-1)
 J( 1, 3) =          6085.405542  : J'( 1, 3) =         -3042.702771  (cm-1)
 J( 1, 4) =            -4.176768  : J'( 1, 4) =             2.088384  (cm-1)
 J( 1, 5) =            -3.500102  : J'( 1, 5) =             1.750051  (cm-1)
 J( 1, 6) =           -24.716655  : J'( 1, 6) =            12.358327  (cm-1)
 J( 1, 7) =            -0.747388  : J'( 1, 7) =             0.373694  (cm-1)
 J( 1, 8) =            -4.719512  : J'( 1, 8) =             2.359756  (cm-1)
 J( 1, 9) =             4.982414  : J'( 1, 9) =            -2.491207  (cm-1)
 J( 1,10) =            25.303649  : J'( 1,10) =           -12.651825  (cm-1)
 J( 1,11) =            24.538760  : J'( 1,11) =           -12.269380  (cm-1)
 J( 1,12) =             1.586338  : J'( 1,12) =            -0.793169  (cm-1)
 J( 1,13) =             5.177190  : J'( 1,13) =            -2.588595  (cm-1)
 J( 1,14) =            73.662104  : J'( 1,14) =           -36.831052  (cm-1)
 J( 1,15) =            39.988233  : J'( 1,15) =           -19.994116  (cm-1)
 J( 2, 3) =          6351.574848  : J'( 2, 3) =         -3175.787424  (cm-1)
 J( 2, 4) =             8.731340  : J'( 2, 4) =            -4.365670  (cm-1)
 J( 2, 5) =            25.994302  : J'( 2, 5) =           -12.997151  (cm-1)
 J( 2, 6) =           624.835384  : J'( 2, 6) =          -312.417692  (cm-1)
 J( 2, 7) =           103.044677  : J'( 2, 7) =           -51.522338  (cm-1)
 J( 2, 8) =            -3.579699  : J'( 2, 8) =             1.789849  (cm-1)
 J( 2, 9) =             3.393409  : J'( 2, 9) =            -1.696704  (cm-1)
 J( 2,10) =            19.694264  : J'( 2,10) =            -9.847132  (cm-1)
 J( 2,11) =            21.808672  : J'( 2,11) =           -10.904336  (cm-1)
 J( 2,12) =            29.721357  : J'( 2,12) =           -14.860679  (cm-1)
 J( 2,13) =            37.782472  : J'( 2,13) =           -18.891236  (cm-1)
 J( 2,14) =           659.844881  : J'( 2,14) =          -329.922441  (cm-1)
 J( 2,15) =            22.074865  : J'( 2,15) =           -11.037432  (cm-1)
 J( 3, 4) =            -1.040367  : J'( 3, 4) =             0.520183  (cm-1)
 J( 3, 5) =             0.472439  : J'( 3, 5) =            -0.236219  (cm-1)
 J( 3, 6) =             5.693211  : J'( 3, 6) =            -2.846606  (cm-1)
 J( 3, 7) =             3.922545  : J'( 3, 7) =            -1.961273  (cm-1)
 J( 3, 8) =            -4.524751  : J'( 3, 8) =             2.262375  (cm-1)
 J( 3, 9) =             3.402643  : J'( 3, 9) =            -1.701322  (cm-1)
 J( 3,10) =            31.115071  : J'( 3,10) =           -15.557536  (cm-1)
 J( 3,11) =            21.618826  : J'( 3,11) =           -10.809413  (cm-1)
 J( 3,12) =            -4.503687  : J'( 3,12) =             2.251844  (cm-1)
 J( 3,13) =            -6.782191  : J'( 3,13) =             3.391096  (cm-1)
 J( 3,14) =           -47.059319  : J'( 3,14) =            23.529659  (cm-1)
 J( 3,15) =            -3.597596  : J'( 3,15) =             1.798798  (cm-1)
 J( 4, 5) =          6222.684793  : J'( 4, 5) =         -3111.342397  (cm-1)
 J( 4, 6) =          5817.042478  : J'( 4, 6) =         -2908.521239  (cm-1)
 J( 4, 7) =          6299.679572  : J'( 4, 7) =         -3149.839786  (cm-1)
 J( 4, 8) =            40.931927  : J'( 4, 8) =           -20.465963  (cm-1)
 J( 4, 9) =           681.227369  : J'( 4, 9) =          -340.613685  (cm-1)
 J( 4,10) =            33.478288  : J'( 4,10) =           -16.739144  (cm-1)
 J( 4,11) =            27.607732  : J'( 4,11) =           -13.803866  (cm-1)
 J( 4,12) =           118.858784  : J'( 4,12) =           -59.429392  (cm-1)
 J( 4,13) =             3.668246  : J'( 4,13) =            -1.834123  (cm-1)
 J( 4,14) =            -7.635341  : J'( 4,14) =             3.817671  (cm-1)
 J( 4,15) =             4.387123  : J'( 4,15) =            -2.193562  (cm-1)
 J( 5, 6) =          6373.630248  : J'( 5, 6) =         -3186.815124  (cm-1)
 J( 5, 7) =          6190.472247  : J'( 5, 7) =         -3095.236124  (cm-1)
 J( 5, 8) =            -3.295893  : J'( 5, 8) =             1.647947  (cm-1)
 J( 5, 9) =           -10.652607  : J'( 5, 9) =             5.326303  (cm-1)
 J( 5,10) =             0.571686  : J'( 5,10) =            -0.285843  (cm-1)
 J( 5,11) =            -2.938417  : J'( 5,11) =             1.469209  (cm-1)
 J( 5,12) =            -4.888655  : J'( 5,12) =             2.444328  (cm-1)
 J( 5,13) =            -1.424446  : J'( 5,13) =             0.712223  (cm-1)
 J( 5,14) =            -9.665925  : J'( 5,14) =             4.832963  (cm-1)
 J( 5,15) =            -3.552006  : J'( 5,15) =             1.776003  (cm-1)
 J( 6, 7) =          5891.390925  : J'( 6, 7) =         -2945.695462  (cm-1)
 J( 6, 8) =            29.806959  : J'( 6, 8) =           -14.903479  (cm-1)
 J( 6, 9) =           790.682793  : J'( 6, 9) =          -395.341397  (cm-1)
 J( 6,10) =            59.517479  : J'( 6,10) =           -29.758739  (cm-1)
 J( 6,11) =            14.330282  : J'( 6,11) =            -7.165141  (cm-1)
 J( 6,12) =            10.718761  : J'( 6,12) =            -5.359380  (cm-1)
 J( 6,13) =             7.122270  : J'( 6,13) =            -3.561135  (cm-1)
 J( 6,14) =           228.711167  : J'( 6,14) =          -114.355584  (cm-1)
 J( 6,15) =            12.145267  : J'( 6,15) =            -6.072634  (cm-1)
 J( 7, 8) =            -3.274897  : J'( 7, 8) =             1.637448  (cm-1)
 J( 7, 9) =           -27.352297  : J'( 7, 9) =            13.676148  (cm-1)
 J( 7,10) =            -0.039686  : J'( 7,10) =             0.019843  (cm-1)
 J( 7,11) =             0.525055  : J'( 7,11) =            -0.262528  (cm-1)
 J( 7,12) =            79.532854  : J'( 7,12) =           -39.766427  (cm-1)
 J( 7,13) =            36.930156  : J'( 7,13) =           -18.465078  (cm-1)
 J( 7,14) =           838.787178  : J'( 7,14) =          -419.393589  (cm-1)
 J( 7,15) =            12.786333  : J'( 7,15) =            -6.393166  (cm-1)
 J( 8, 9) =          6301.811696  : J'( 8, 9) =         -3150.905848  (cm-1)
 J( 8,10) =          6191.809501  : J'( 8,10) =         -3095.904750  (cm-1)
 J( 8,11) =          6233.781500  : J'( 8,11) =         -3116.890750  (cm-1)
 J( 8,12) =             5.430093  : J'( 8,12) =            -2.715047  (cm-1)
 J( 8,13) =            -4.035045  : J'( 8,13) =             2.017522  (cm-1)
 J( 8,14) =             1.386862  : J'( 8,14) =            -0.693431  (cm-1)
 J( 8,15) =            18.207870  : J'( 8,15) =            -9.103935  (cm-1)
 J( 9,10) =          6141.822425  : J'( 9,10) =         -3070.911213  (cm-1)
 J( 9,11) =          5915.383786  : J'( 9,11) =         -2957.691893  (cm-1)
 J( 9,12) =           525.215437  : J'( 9,12) =          -262.607719  (cm-1)
 J( 9,13) =            14.926707  : J'( 9,13) =            -7.463353  (cm-1)
 J( 9,14) =            47.566960  : J'( 9,14) =           -23.783480  (cm-1)
 J( 9,15) =             2.747800  : J'( 9,15) =            -1.373900  (cm-1)
 J(10,11) =          5995.417240  : J'(10,11) =         -2997.708620  (cm-1)
 J(10,12) =            -6.265299  : J'(10,12) =             3.132649  (cm-1)
 J(10,13) =            -3.829070  : J'(10,13) =             1.914535  (cm-1)
 J(10,14) =             0.655181  : J'(10,14) =            -0.327591  (cm-1)
 J(10,15) =            16.416710  : J'(10,15) =            -8.208355  (cm-1)
 J(11,12) =           499.961650  : J'(11,12) =          -249.980825  (cm-1)
 J(11,13) =           -19.221490  : J'(11,13) =             9.610745  (cm-1)
 J(11,14) =             1.385128  : J'(11,14) =            -0.692564  (cm-1)
 J(11,15) =           387.478908  : J'(11,15) =          -193.739454  (cm-1)
 J(12,13) =          6254.100567  : J'(12,13) =         -3127.050284  (cm-1)
 J(12,14) =          6019.893269  : J'(12,14) =         -3009.946635  (cm-1)
 J(12,15) =          5944.549597  : J'(12,15) =         -2972.274799  (cm-1)
 J(13,14) =          6188.936095  : J'(13,14) =         -3094.468048  (cm-1)
 J(13,15) =          6201.407563  : J'(13,15) =         -3100.703781  (cm-1)
 J(14,15) =          6238.697931  : J'(14,15) =         -3119.348965  (cm-1)
 We have an S=1/2 lattice with   16 sites, let's directly diagonalize this Hamiltonian
 Building Heisenberg Hamiltonian

 Diagonalizing Heisenberg Hamiltonian
 Analysis of SCF Wavefunction

 --------------------------------------------------------------

                    Orbital Energies (a.u.)
 --------------------------------------------------------------

 Alpha MOs
 -- Occupied --
 -0.914  -0.914  -0.515  -0.515  -0.518  -0.519  -0.520  -0.516
 -0.517  -0.515  -0.515  -0.516  -0.518  -0.517  -0.516  -0.517
 -0.520  -0.522
 -- Virtual --
  0.836   1.117   1.016   1.022   1.011   1.009   1.243   0.921
  1.040   1.039   1.160   0.883   1.013   1.060   1.104   1.051
  0.983   0.977

 Beta MOs
 -- Occupied --
 -0.914  -0.914
 -- Virtual --
  0.148   0.148   0.149   0.147   0.150   0.147   0.147   0.149
  0.148   0.147   0.151   0.149   0.150   0.150   0.151   0.149
  1.024   1.266   1.178   1.181   1.171   1.177   1.313   1.092
  1.181   1.205   1.259   1.060   1.175   1.228   1.219   1.203
  1.152   1.148
 --------------------------------------------------------------

          Ground-State Mulliken Net Atomic Charges

     Atom                 Charge (a.u.)
  ----------------------------------------
      1 H                    -0.000020
      2 H                     0.000010
      3 H                    -0.000081
      4 H                     0.000097
      5 H                    -0.000077
      6 H                     0.000118
      7 H                    -0.000020
      8 H                    -0.000048
      9 H                     0.000109
     10 H                     0.000010
     11 H                    -0.000059
     12 H                    -0.000057
     13 H                    -0.000065
     14 H                     0.000124
     15 H                     0.000016
     16 H                    -0.000056
     17 He                   -0.000000
     18 He                   -0.000000
  ----------------------------------------
  Sum of atomic charges =    -0.000000

 -----------------------------------------------------------------
                    Cartesian Multipole Moments
 -----------------------------------------------------------------
    Charge (ESU x 10^10)
                -0.0000
    Dipole Moment (Debye)
         X      -0.0003      Y       0.0005      Z       0.0011
       Tot       0.0012
    Quadrupole Moments (Debye-Ang)
        XX     -25.5319     XY       0.0193     YY     -25.5868
        XZ      -0.0057     YZ      -0.0134     ZZ     -25.5348
    Octopole Moments (Debye-Ang^2)
       XXX     -25.0693    XXY     -37.1419    XYY      -6.5345
       YYY    -114.0924    XXZ      -6.9306    XYZ      -0.0224
       YYZ      -6.7964    XZZ      -5.3604    YZZ     -37.7344
       ZZZ     -19.6350
    Hexadecapole Moments (Debye-Ang^3)
      XXXX   -1667.7881   XXXY     -12.9996   XXYY    -560.4499
      XYYY     -11.5122   YYYY   -1684.1113   XXXZ      18.6742
      XXYZ    -197.8503   XYYZ       4.7033   YYYZ    -602.8131
      XXZZ    -542.8070   XYZZ      -3.2765   YYZZ    -561.0803
      XZZZ      15.6890   YZZZ    -592.0300   ZZZZ   -1631.2412
 -----------------------------------------------------------------
 JobOver = TRUE
Archival summary:
1\1\sinatra\SP\ROProcedureUnspecified\6-31G*\e216(\nmayhall\TueMar2116:19:542017TueMar2116:19:542017\0\\#,ROProcedureUnspecified,6-31G*,\\0,17\H\H,1,1.80987\H,1,1.81009,2,60.0846\H,1,1.81076,2,60.0431,3,-70.5554,0\H,1,2.63307,2,110.31,3,-151.7,0\H,5,1.81131,1,139.459,2,147.862,0\H,6,1.81065,5,60.0237,1,-0.959826,0\H,7,1.81086,6,60.0452,5,-70.5123,0\H,7,2.6459,6,127.132,5,-99.3643,0\H,9,1.81039,7,161.062,6,-128.385,0\H,9,1.81121,7,114.496,6,162.928,0\H,11,1.8112,9,60.0005,7,89.002,0\H,1,2.68667,2,158.004,3,107.309,0\H,13,1.8111,1,87.8509,2,-80.3099,0\H,14,1.8108,13,60.0291,1,-71.0844,0\H,13,1.81133,1,131.287,2,-126.04,0\He,6,14.6354,5,144.227,1,-112.292,0\He,6,14.8639,5,120.837,1,115.817,0\\HF=-13.3828141\\@

 Total job time:  1.45s(wall), 1.45s(cpu) 
 Tue Mar 21 16:19:54 2017

        *************************************************************
        *                                                           *
        *  Thank you very much for using Q-Chem.  Have a nice day.  *
        *                                                           *
        *************************************************************


*** MISSION COMPLETED -- STARFLEET OUT ***

