                  Welcome to Q-Chem
     A Quantum Leap Into The Future Of Chemistry


 Q-Chem 4.3, Q-Chem, Inc., Pleasanton, CA (2015)

 Y. Shao,  Z. Gan,  E. Epifanovsky,  A. T. B. Gilbert,  M. Wormit,  
 J. Kussmann,  A. W. Lange,  A. Behn,  J. Deng,  X. Feng,  D. Ghosh,  
 M. Goldey,  P. R. Horn,  L. D. Jacobson,  I. Kaliman,  R. Z. Khaliullin,  
 T. Kus,  A. Landau,  J. Liu,  E. I. Proynov,  Y. M. Rhee,  R. M. Richard,  
 M. A. Rohrdanz,  R. P. Steele,  E. J. Sundstrom,  H. L. Woodcock III,  
 P. M. Zimmerman,  D. Zuev,  B. Albrecht,  E. Alguire,  B. Austin,  
 S. A. Baeppler,  G. J. O. Beran,  Y. A. Bernard,  E. Berquist,  
 K. Brandhorst,  K. B. Bravaya,  S. T. Brown,  D. Casanova,  C.-M. Chang,  
 Y. Chen,  S. H. Chien,  K. D. Closser,  D. L. Crittenden,  M. Diedenhofen,  
 R. A. DiStasio Jr.,  H. Do,  A. D. Dutoi,  R. G. Edgar,  P.-T. Fang,  
 S. Fatehi,  Q. Feng,  L. Fusti-Molnar,  A. Ghysels,  
 A. Golubeva-Zadorozhnaya,  J. Gomes,  A. Gunina,  M. W. D. Hanson-Heine,  
 P. H. P. Harbach,  A. W. Hauser,  E. G. Hohenstein,  Z. C. Holden,  K. Hui,  
 T.-C. Jagau,  H. Ji,  B. Kaduk,  K. Khistyaev,  Jaehoon Kim,  Jihan Kim,  
 R. A. King,  P. Klunzinger,  D. Kosenkov,  T. Kowalczyk,  C. M. Krauter,  
 K. U. Lao,  A. Laurent,  K. V. Lawler,  S. Lehtola,  S. V. Levchenko,  
 C. Y. Lin,  Y.-S. Lin,  F. Liu,  E. Livshits,  R. C. Lochan,  A. Luenser,  
 P. Manohar,  S. F. Manzer,  S.-P. Mao,  N. Mardirossian,  A. V. Marenich,  
 L. A. Martinez-Martinez,  S. A. Maurer,  N. J. Mayhall,  K. Nanda,  
 C. M. Oana,  R. Olivares-Amaya,  D. P. O'Neill,  J. A. Parkhill,  
 T. M. Perrine,  R. Peverati,  P. A. Pieniazek,  F. Plasser,  A. Prociuk,  
 D. R. Rehn,  E. Rosta,  N. J. Russ,  N. Sergueev,  S. M. Sharada,  
 S. Sharma,  D. W. Small,  A. Sodt,  T. Stauch,  T. Stein,  D. Stuck,  
 Y.-C. Su,  A. J. W. Thom,  T. Tsuchimochi,  L. Vogt,  O. Vydrov,  T. Wang,  
 M. A. Watson,  J. Wenzel,  A. White,  C. F. Williams,  V. Vanovschi,  
 S. Yeganeh,  S. R. Yost,  Z.-Q. You,  I. Y. Zhang,  X. Zhang,  Y. Zhao,  
 B. R. Brooks,  G. K. L. Chan,  D. M. Chipman,  C. J. Cramer,  
 W. A. Goddard III,  M. S. Gordon,  W. J. Hehre,  A. Klamt,  
 H. F. Schaefer III,  M. W. Schmidt,  C. D. Sherrill,  D. G. Truhlar,  
 A. Warshel,  X. Xu,  A. Aspuru-Guzik,  R. Baer,  A. T. Bell,  N. A. Besley,  
 J.-D. Chai,  A. Dreuw,  B. D. Dunietz,  T. R. Furlani,  S. R. Gwaltney,  
 C.-P. Hsu,  Y. Jung,  J. Kong,  D. S. Lambrecht,  W. Liang,  C. Ochsenfeld,  
 V. A. Rassolov,  L. V. Slipchenko,  J. E. Subotnik,  T. Van Voorhis,  
 J. M. Herbert,  A. I. Krylov,  P. M. W. Gill,  M. Head-Gordon

 Contributors to earlier versions of Q-Chem not listed above: 
 R. D. Adamson,  J. Baker,  E. F. C. Byrd,  A. K. Chakraborty,  C.-L. Cheng,  
 H. Dachsel,  R. J. Doerksen,  G. Hawkins,  A. Heyden,  S. Hirata,  
 G. Kedziora,  F. J. Keil,  C. Kelley,  P. P. Korambath,  W. Kurlancheek,  
 A. M. Lee,  M. S. Lee,  D. Liotard,  I. Lotan,  P. E. Maslen,  N. Nair,  
 D. Neuhauser,  R. Olson,  B. Peters,  J. Ritchie,  N. E. Schultz,  
 N. Shenvi,  A. C. Simmonett,  K. S. Thanthiriwatte,  Q. Wu,  W. Zhang

 Please cite Q-Chem as follows:
 Y. Shao et al., Mol. Phys. 113, 184-215 (2015)
 DOI: 10.1080/00268976.2014.952696

 Q-Chem 4.3.0 for Intel X86 EM64T Linux

 Parts of Q-Chem use Armadillo 5.200.1 (Boston Tea Smuggler).
 http://arma.sourceforge.net/

 Q-Chem begins on Mon Apr 10 20:59:33 2017  


Host: 0

     Scratch files written to /home/nmayhall/scratch_qchem/3x4//
 Dec1416 |home|nmayhall|qcSoftware|qchem|qchem.svn-casman|libmdc|qstr_RNUM -1
 Using version located at /home/nmayhall/qcSoftware/qchem/qchem.svn-casman/bin/qchem


Total Memory Limit in MB = 2000
Mega-Array Size in MB = 62

Checking the input file for inconsistencies... 	...done.

 Q-Chem warning in module /home/nmayhall/qcSoftware/qchem/qchem.svn-casman/forms1/BasisType.C, line 1452:

 You are not using the predefined 5D/6D in this basis set.

Finally everything over in PARseQInput

--------------------------------------------------------------
User input:
--------------------------------------------------------------
$rem
	exchange 		hf
	unrestricted		1
	basis			6-31g*	
	aux_basis		rimp2-vdz
	scf_guess		core	
	scf_convergence		8
	purecart		1111

	symmetry		0
	sym_ignore		1

	!correlation		sf-cas
	!cas_n_spin_flip		1
	!cas_local		1
	gui			2
$end

$development
	1sf_heis_projection	1
$end

$molecule
0 13 
H         -4.93705        1.03348       -4.12005
H         -2.41330        1.34545       -4.16819
H          0.11135        1.65220       -4.20378
H         -4.78274        0.08637       -1.81452
H         -2.25796        0.39193       -1.85060
H          0.26594        0.70260       -1.89929
H         -4.56893       -0.85024        0.48346
H         -2.09969       -0.57974        0.51363
H          0.35996       -0.25022        0.40004
H         -5.03100        1.98581       -6.41959
H         -2.57177        2.31891       -6.53168
H         -0.10292        2.59278       -6.50010
He	10	10	10	
He	-10	10	10	
$end


--------------------------------------------------------------
 ----------------------------------------------------------------
             Standard Nuclear Orientation (Angstroms)
    I     Atom           X                Y                Z
 ----------------------------------------------------------------
    1      H      -4.9370500000     1.0334800000    -4.1200500000
    2      H      -2.4133000000     1.3454500000    -4.1681900000
    3      H       0.1113500000     1.6522000000    -4.2037800000
    4      H      -4.7827400000     0.0863700000    -1.8145200000
    5      H      -2.2579600000     0.3919300000    -1.8506000000
    6      H       0.2659400000     0.7026000000    -1.8992900000
    7      H      -4.5689300000    -0.8502400000     0.4834600000
    8      H      -2.0996900000    -0.5797400000     0.5136300000
    9      H       0.3599600000    -0.2502200000     0.4000400000
   10      H      -5.0310000000     1.9858100000    -6.4195900000
   11      H      -2.5717700000     2.3189100000    -6.5316800000
   12      H      -0.1029200000     2.5927800000    -6.5001000000
   13      He     10.0000000000    10.0000000000    10.0000000000
   14      He    -10.0000000000    10.0000000000    10.0000000000
 ----------------------------------------------------------------
 Nuclear Repulsion Energy =    10.0778912726 hartrees
 There are       14 alpha and        2 beta electrons
 Requested basis set is 6-31G(d)
 There are 28 shells and 28 basis functions

Total QAlloc Memory Limit   2000 MB
Mega-Array Size        61 MB
MEM_STATIC part        62 MB

finished with qalloc call

                       Distance Matrix (Angstroms)
             H (  1)   H (  2)   H (  3)   H (  4)   H (  5)   H (  6)
   H (  2)  2.543414
   H (  3)  5.086862  2.543466
   H (  4)  2.497258  3.569214  5.666790
   H (  5)  3.569245  2.510887  3.569225  2.543459
   H (  6)  5.666777  3.569242  2.497261  5.086855  2.543415
   H (  7)  4.987606  5.577243  7.080780  2.490716  3.511610  5.609347
   H (  8)  5.667811  5.071898  5.667822  3.614242  2.561011  3.614247
   H (  9)  7.080778  5.577263  4.987601  5.609361  3.511587  2.490708
   H ( 10)  2.490711  3.511583  5.609356  4.987602  5.577264  7.080771
   H ( 11)  3.614255  2.561020  3.614243  5.667823  5.071907  5.667812
   H ( 12)  5.609355  3.511622  2.490720  7.080781  5.577256  4.987614
   He( 13) 22.425204 20.729903 19.215060 21.363341 19.570624 17.966265
   He( 14) 17.475919 18.253681 19.330611 16.281362 17.108212 18.259909
             H (  7)   H (  8)   H (  9)   H ( 10)   H ( 11)   H ( 12)
   H (  8)  2.484195
   H (  9)  4.965978  2.484223
   H ( 10)  7.477218  7.952620  8.976059
   H ( 11)  7.952632  7.632917  7.952623  2.484217
   H ( 12)  8.976065  7.952634  7.477221  4.965971  2.484195
   He( 13) 20.507217 18.663457 17.033984 23.659272 22.143735 20.716882
   He( 14) 15.420401 16.258444 17.451505 18.934654 19.684364 20.617284
             He( 13)
   He( 14) 20.000000


 Q-Chem warning in module /home/nmayhall/qcSoftware/qchem/qchem.svn-casman/forms1/BasisType.C, line 1375:

 SAD: How to set up polarization functions for non-Pople basis?

 Requested basis set is rimp2-VDZ
 There are 82 shells and 186 basis functions
 Job number = 2, Threshold = 1.00E-11
Integral type ranges set in mkLRange.C for JobNum: 2  <1-7|1-7>
Symmetry turned off temporarily
 Using the largest function pair in Schwarz integrals
Total number of integrals generated =             967
Symmetry turned back on
 A cutoff of  1.0D-11 yielded    241 shell pairs
 There are       241 function pairs
 Job number = 11, Threshold = 1.00E-11
Integral type ranges set in mkLRange.C for JobNum: 11  <1-1|8-8>

 -------------------------------------------------------
 OpenMP Integral Computing Module                       
 Release: version 1.0, May 2013, Q-Chem Inc. Pittsburgh 
 -------------------------------------------------------
 Integral Job Info:
 Integral job number is                      11
 Integral operator is                         1
 short-range coefficients                     0
 long-range coefficients              100000000
 Omega coefficients                           0
 if combine SR and LR in K                    0
 Integral screening is                        0
 Integral computing path is                   2
 max size of driver memory is            800000
 size of driver memory is                 11780
 size of scratch memory is               800000
 max col of scratch BK array                289
 max len of scratch array in speh3            1
 max len of scratch index in speh4            2
 max int batch size is                      520
 min int batch size is                       52
 fixed nKL is                               520
 max L of basis functions is                  0
 order of int derivative is                   0
 number of shells is                         28
 number of basis is                          28
 number of cartesian basis is                28
 number of contracted shell pairs           241
 number of primitive shell pairs            669
 maxK2 (contraction) of shell pair            9
 max number of K2 of shell pair               1
 max number of CS2 of shell pair            124
 max number of PS2 of shell pair            372
 mem total for path MDJ                    6504
 -------------------------------------------------------
 Smallest overlap matrix eigenvalue = 1.87E-01
 Multipole matrices computed through 2nd order

  Scale SEOQF with 1.000000e-02/1.000000e-02/1.000000e-02

 Standard Electronic Orientation quadrupole field applied
 Nucleus-field energy     =    -0.0000000014 hartrees
GuessMan:  IGuess = 1
 Guess MOs from core Hamiltonian diagonalization
scfman initvdwdat 
 An unrestricted Hartree-Fock SCF calculation will be
 performed using Pulay DIIS extrapolation
 SCF converges when DIIS error is below 1.0E-08
Finding J and K together
 Job number = 22, Threshold = 1.00E-11
Integral type ranges set in mkLRange.C for JobNum: 22  <1-1|1-1>
Storing 6234.98% of integrals
Total number of integrals generated =           26609
 MakeJK  time:  CPU       0.01 s  wall       0.01 s
Fock build time:  0.01 s (CPU) 0.01 s (wall)
DIIS Errors:  Max 6.75E-01 RMS 3.80E-02

Current DIIS subspace size = 1
REM_GRID_RESTART_DIIS = 0

 ---------------------------------------
  Cycle       Energy         DIIS Error
 ---------------------------------------
    1     -10.5876741637      3.80E-02  00000
Finding J and K together
 Job number = 22, Threshold = 1.00E-11
Integral type ranges set in mkLRange.C for JobNum: 22  <1-1|1-1>
Storing 6234.98% of integrals
Reusing in-core integrals buffer for job 22
 MakeJK  time:  CPU       0.00 s  wall       0.00 s
Fock build time:  0.00 s (CPU) 0.00 s (wall)
DIIS Errors:  Max 2.54E-01 RMS 1.38E-02

Current DIIS subspace size = 2
REM_GRID_RESTART_DIIS = 0

    2     -11.6006179127      1.38E-02  00000
Finding J and K together
 Job number = 22, Threshold = 1.00E-11
Integral type ranges set in mkLRange.C for JobNum: 22  <1-1|1-1>
Storing 6234.98% of integrals
Reusing in-core integrals buffer for job 22
 MakeJK  time:  CPU       0.00 s  wall       0.00 s
Fock build time:  0.00 s (CPU) 0.00 s (wall)
DIIS Errors:  Max 4.62E-02 RMS 2.84E-03

Current DIIS subspace size = 3
REM_GRID_RESTART_DIIS = 0

    3     -11.6416246017      2.84E-03  00000
Finding J and K together
 Job number = 22, Threshold = 1.00E-11
Integral type ranges set in mkLRange.C for JobNum: 22  <1-1|1-1>
Storing 6234.98% of integrals
Reusing in-core integrals buffer for job 22
 MakeJK  time:  CPU       0.00 s  wall       0.00 s
Fock build time:  0.00 s (CPU) 0.00 s (wall)
DIIS Errors:  Max 5.40E-03 RMS 3.77E-04

Current DIIS subspace size = 4
REM_GRID_RESTART_DIIS = 0

    4     -11.6491412410      3.77E-04  00000
Finding J and K together
 Job number = 22, Threshold = 1.00E-11
Integral type ranges set in mkLRange.C for JobNum: 22  <1-1|1-1>
Storing 6234.98% of integrals
Reusing in-core integrals buffer for job 22
 MakeJK  time:  CPU       0.00 s  wall       0.00 s
Fock build time:  0.00 s (CPU) 0.00 s (wall)
DIIS Errors:  Max 9.16E-05 RMS 5.70E-06

Current DIIS subspace size = 5
REM_GRID_RESTART_DIIS = 0

    5     -11.6501953689      5.70E-06  00000
Finding J and K together
 Job number = 22, Threshold = 1.00E-11
Integral type ranges set in mkLRange.C for JobNum: 22  <1-1|1-1>
Storing 6234.98% of integrals
Reusing in-core integrals buffer for job 22
 MakeJK  time:  CPU       0.00 s  wall       0.00 s
Fock build time:  0.00 s (CPU) 0.00 s (wall)
DIIS Errors:  Max 5.34E-06 RMS 3.41E-07

Current DIIS subspace size = 6
REM_GRID_RESTART_DIIS = 0

    6     -11.6502372064      3.41E-07  00000
Finding J and K together
 Job number = 22, Threshold = 1.00E-11
Integral type ranges set in mkLRange.C for JobNum: 22  <1-1|1-1>
Storing 6234.98% of integrals
Reusing in-core integrals buffer for job 22
 MakeJK  time:  CPU       0.00 s  wall       0.00 s
Fock build time:  0.00 s (CPU) 0.00 s (wall)
DIIS Errors:  Max 4.72E-07 RMS 3.39E-08

Current DIIS subspace size = 7
REM_GRID_RESTART_DIIS = 0

    7     -11.6502443680      3.39E-08  00000
Finding J and K together
 Job number = 22, Threshold = 1.00E-11
Integral type ranges set in mkLRange.C for JobNum: 22  <1-1|1-1>
Storing 6234.98% of integrals
Reusing in-core integrals buffer for job 22
 MakeJK  time:  CPU       0.00 s  wall       0.00 s
Fock build time:  0.00 s (CPU) 0.00 s (wall)
DIIS Errors:  Max 1.12E-07 RMS 5.98E-09

Current DIIS subspace size = 8
REM_GRID_RESTART_DIIS = 0

    8     -11.6502451647      5.98E-09  00000 Convergence criterion met
 ---------------------------------------
 <S^2> = 42.0000
 SCF time:  CPU 0.03 s  wall 0.03 s
 SCF   energy in the final basis set = -11.6502451647
 Total energy in the final basis set = -11.6502451647
Symmetry turned off temporarily
 Analysis of SCF Wavefunction

 --------------------------------------------------------------

                    Orbital Energies (a.u.)
 --------------------------------------------------------------

 Alpha MOs
 -- Occupied --
 -0.914  -0.914  -0.578  -0.554  -0.543  -0.521  -0.519  -0.500
 -0.488  -0.485  -0.476  -0.454  -0.447  -0.421
 -- Virtual --
  0.803   0.832   0.856   0.884   0.899   0.954   0.972   1.001
  1.010   1.074   1.093   1.239   1.400   1.400

 Beta MOs
 -- Occupied --
 -0.914  -0.914
 -- Virtual --
  0.007   0.034   0.049   0.076   0.077   0.109   0.120   0.126
  0.137   0.166   0.176   0.216   1.032   1.053   1.072   1.092
  1.106   1.148   1.166   1.190   1.197   1.251   1.267   1.398
  1.400   1.400
 --------------------------------------------------------------

          Ground-State Mulliken Net Atomic Charges

     Atom                 Charge (a.u.)    Spin (a.u.)
  --------------------------------------------------------
      1 H                     0.000003       0.999997
      2 H                    -0.000021       1.000021
      3 H                     0.000003       0.999997
      4 H                     0.000003       0.999997
      5 H                    -0.000021       1.000021
      6 H                     0.000003       0.999997
      7 H                     0.000009       0.999991
      8 H                    -0.000005       1.000005
      9 H                     0.000009       0.999991
     10 H                     0.000009       0.999991
     11 H                    -0.000005       1.000005
     12 H                     0.000009       0.999991
     13 He                    0.000000       0.000000
     14 He                    0.000000       0.000000
  --------------------------------------------------------
  Sum of atomic charges =     0.000000
  Sum of spin   charges =    12.000000

 -----------------------------------------------------------------
                    Cartesian Multipole Moments
 -----------------------------------------------------------------
    Charge (ESU x 10^10)
                 0.0000
    Dipole Moment (Debye)
         X      -0.0000      Y       0.0000      Z       0.0000
       Tot       0.0000
    Quadrupole Moments (Debye-Ang)
        XX     -18.3666     XY      -0.0998     YY     -17.5044
        XZ      -0.0517     YZ       0.4267     ZZ     -18.3462
    Octopole Moments (Debye-Ang^2)
       XXX     114.0869    XXY     -34.5322    XYY      35.8399
       YYY    -102.7501    XXZ      28.3884    XYZ      -0.7393
       YYZ      26.2957    XZZ      38.2944    YZZ     -37.5495
       ZZZ      84.2560
    Hexadecapole Moments (Debye-Ang^3)
      XXXX   -2197.5734   XXXY      82.1654   XXYY    -602.7348
      XYYY      78.1789   YYYY   -1448.8053   XXXZ    -363.7391
      XXYZ    -117.8049   XYYZ    -114.5220   YYYZ    -374.5365
      XXZZ    -838.6795   XYZZ      32.4836   YYZZ    -704.2505
      XZZZ    -362.7470   YZZZ    -349.4943   ZZZZ   -2791.0020
 -----------------------------------------------------------------
 JobOver = TRUE
Archival summary:
1\1\sinatra\SP\HF\6-31G*\e212()\nmayhall\MonApr1020:59:332017MonApr1020:59:332017\0\\#,HF,6-31G*,\\0,13\H\H,1,2.51089\H,2,2.54341,1,89.8475\H,3,2.49071,2,88.456,1,179.985,0\H,4,2.48422,3,93.1864,2,0.0382142,0\H,5,2.48419,4,176.408,3,-0.0563736,0\H,6,2.49072,5,93.1864,4,-0.0195791,0\H,3,2.49726,2,90.1535,1,-0.0310098,0\H,8,2.49072,3,178.609,2,-0.399943,0\H,9,2.4842,8,93.1864,3,0.451033,0\H,10,2.48422,9,176.408,8,0.0026112,0\H,11,2.49071,10,93.1861,9,-0.0429973,0\He,9,15.4204,8,105.936,3,-106.582,0\He,11,17.034,10,127.907,9,-116.062,0\\HF=-11.6502452\\@

 Total job time:  0.09s(wall), 0.09s(cpu) 
 Mon Apr 10 20:59:33 2017

        *************************************************************
        *                                                           *
        *  Thank you very much for using Q-Chem.  Have a nice day.  *
        *                                                           *
        *************************************************************


*** MISSION COMPLETED -- STARFLEET OUT ***

 
User input: 2 of 2 
 
                  Welcome to Q-Chem
     A Quantum Leap Into The Future Of Chemistry


 Q-Chem 4.3, Q-Chem, Inc., Pleasanton, CA (2015)

 Y. Shao,  Z. Gan,  E. Epifanovsky,  A. T. B. Gilbert,  M. Wormit,  
 J. Kussmann,  A. W. Lange,  A. Behn,  J. Deng,  X. Feng,  D. Ghosh,  
 M. Goldey,  P. R. Horn,  L. D. Jacobson,  I. Kaliman,  R. Z. Khaliullin,  
 T. Kus,  A. Landau,  J. Liu,  E. I. Proynov,  Y. M. Rhee,  R. M. Richard,  
 M. A. Rohrdanz,  R. P. Steele,  E. J. Sundstrom,  H. L. Woodcock III,  
 P. M. Zimmerman,  D. Zuev,  B. Albrecht,  E. Alguire,  B. Austin,  
 S. A. Baeppler,  G. J. O. Beran,  Y. A. Bernard,  E. Berquist,  
 K. Brandhorst,  K. B. Bravaya,  S. T. Brown,  D. Casanova,  C.-M. Chang,  
 Y. Chen,  S. H. Chien,  K. D. Closser,  D. L. Crittenden,  M. Diedenhofen,  
 R. A. DiStasio Jr.,  H. Do,  A. D. Dutoi,  R. G. Edgar,  P.-T. Fang,  
 S. Fatehi,  Q. Feng,  L. Fusti-Molnar,  A. Ghysels,  
 A. Golubeva-Zadorozhnaya,  J. Gomes,  A. Gunina,  M. W. D. Hanson-Heine,  
 P. H. P. Harbach,  A. W. Hauser,  E. G. Hohenstein,  Z. C. Holden,  K. Hui,  
 T.-C. Jagau,  H. Ji,  B. Kaduk,  K. Khistyaev,  Jaehoon Kim,  Jihan Kim,  
 R. A. King,  P. Klunzinger,  D. Kosenkov,  T. Kowalczyk,  C. M. Krauter,  
 K. U. Lao,  A. Laurent,  K. V. Lawler,  S. Lehtola,  S. V. Levchenko,  
 C. Y. Lin,  Y.-S. Lin,  F. Liu,  E. Livshits,  R. C. Lochan,  A. Luenser,  
 P. Manohar,  S. F. Manzer,  S.-P. Mao,  N. Mardirossian,  A. V. Marenich,  
 L. A. Martinez-Martinez,  S. A. Maurer,  N. J. Mayhall,  K. Nanda,  
 C. M. Oana,  R. Olivares-Amaya,  D. P. O'Neill,  J. A. Parkhill,  
 T. M. Perrine,  R. Peverati,  P. A. Pieniazek,  F. Plasser,  A. Prociuk,  
 D. R. Rehn,  E. Rosta,  N. J. Russ,  N. Sergueev,  S. M. Sharada,  
 S. Sharma,  D. W. Small,  A. Sodt,  T. Stauch,  T. Stein,  D. Stuck,  
 Y.-C. Su,  A. J. W. Thom,  T. Tsuchimochi,  L. Vogt,  O. Vydrov,  T. Wang,  
 M. A. Watson,  J. Wenzel,  A. White,  C. F. Williams,  V. Vanovschi,  
 S. Yeganeh,  S. R. Yost,  Z.-Q. You,  I. Y. Zhang,  X. Zhang,  Y. Zhao,  
 B. R. Brooks,  G. K. L. Chan,  D. M. Chipman,  C. J. Cramer,  
 W. A. Goddard III,  M. S. Gordon,  W. J. Hehre,  A. Klamt,  
 H. F. Schaefer III,  M. W. Schmidt,  C. D. Sherrill,  D. G. Truhlar,  
 A. Warshel,  X. Xu,  A. Aspuru-Guzik,  R. Baer,  A. T. Bell,  N. A. Besley,  
 J.-D. Chai,  A. Dreuw,  B. D. Dunietz,  T. R. Furlani,  S. R. Gwaltney,  
 C.-P. Hsu,  Y. Jung,  J. Kong,  D. S. Lambrecht,  W. Liang,  C. Ochsenfeld,  
 V. A. Rassolov,  L. V. Slipchenko,  J. E. Subotnik,  T. Van Voorhis,  
 J. M. Herbert,  A. I. Krylov,  P. M. W. Gill,  M. Head-Gordon

 Contributors to earlier versions of Q-Chem not listed above: 
 R. D. Adamson,  J. Baker,  E. F. C. Byrd,  A. K. Chakraborty,  C.-L. Cheng,  
 H. Dachsel,  R. J. Doerksen,  G. Hawkins,  A. Heyden,  S. Hirata,  
 G. Kedziora,  F. J. Keil,  C. Kelley,  P. P. Korambath,  W. Kurlancheek,  
 A. M. Lee,  M. S. Lee,  D. Liotard,  I. Lotan,  P. E. Maslen,  N. Nair,  
 D. Neuhauser,  R. Olson,  B. Peters,  J. Ritchie,  N. E. Schultz,  
 N. Shenvi,  A. C. Simmonett,  K. S. Thanthiriwatte,  Q. Wu,  W. Zhang

 Please cite Q-Chem as follows:
 Y. Shao et al., Mol. Phys. 113, 184-215 (2015)
 DOI: 10.1080/00268976.2014.952696

 Q-Chem 4.3.0 for Intel X86 EM64T Linux

 Parts of Q-Chem use Armadillo 5.200.1 (Boston Tea Smuggler).
 http://arma.sourceforge.net/

 Q-Chem begins on Mon Apr 10 20:59:33 2017  


Host: 0

     Scratch files written to /home/nmayhall/scratch_qchem/3x4//
 Dec1416 |home|nmayhall|qcSoftware|qchem|qchem.svn-casman|libmdc|qstr_RNUM -1
 Using version located at /home/nmayhall/qcSoftware/qchem/qchem.svn-casman/bin/qchem

 Turning off symmetry for CASMAN

Total Memory Limit in MB = 2000
Mega-Array Size in MB = 62

Checking the input file for inconsistencies... 	...done.

 Q-Chem warning in module /home/nmayhall/qcSoftware/qchem/qchem.svn-casman/forms1/BasisType.C, line 1452:

 You are not using the predefined 5D/6D in this basis set.

Finally everything over in PARseQInput

--------------------------------------------------------------
User input:
--------------------------------------------------------------
$rem
	exchange 		hf
	unrestricted		0
	basis			6-31g*	
	aux_basis		rimp2-vdz
	scf_guess		read	
	scf_convergence		8
	purecart		1111

	symmetry		0
	sym_ignore		1

	correlation		sf-cas
	cas_n_spin_flip		1
	cas_local		1
	gui			2
$end

$development
	1sf_heis_projection	1
	scf_corresponding_orbs	1
        heisenberg_n_roots	100
$end

$molecule
read
$end

--------------------------------------------------------------
 ----------------------------------------------------------------
             Standard Nuclear Orientation (Angstroms)
    I     Atom           X                Y                Z
 ----------------------------------------------------------------
    1      H      -4.9370500000     1.0334800000    -4.1200500000
    2      H      -2.4133000000     1.3454500000    -4.1681900000
    3      H       0.1113500000     1.6522000000    -4.2037800000
    4      H      -4.7827400000     0.0863700000    -1.8145200000
    5      H      -2.2579600000     0.3919300000    -1.8506000000
    6      H       0.2659400000     0.7026000000    -1.8992900000
    7      H      -4.5689300000    -0.8502400000     0.4834600000
    8      H      -2.0996900000    -0.5797400000     0.5136300000
    9      H       0.3599600000    -0.2502200000     0.4000400000
   10      H      -5.0310000000     1.9858100000    -6.4195900000
   11      H      -2.5717700000     2.3189100000    -6.5316800000
   12      H      -0.1029200000     2.5927800000    -6.5001000000
   13      He     10.0000000000    10.0000000000    10.0000000000
   14      He    -10.0000000000    10.0000000000    10.0000000000
 ----------------------------------------------------------------
 Nuclear Repulsion Energy =    10.0778912726 hartrees
 There are       14 alpha and        2 beta electrons
 Requested basis set is 6-31G(d)
 There are 28 shells and 28 basis functions

Total QAlloc Memory Limit   2000 MB
Mega-Array Size        61 MB
MEM_STATIC part        62 MB

finished with qalloc call

                       Distance Matrix (Angstroms)
             H (  1)   H (  2)   H (  3)   H (  4)   H (  5)   H (  6)
   H (  2)  2.543414
   H (  3)  5.086862  2.543466
   H (  4)  2.497258  3.569214  5.666790
   H (  5)  3.569245  2.510887  3.569225  2.543459
   H (  6)  5.666777  3.569242  2.497261  5.086855  2.543415
   H (  7)  4.987606  5.577243  7.080780  2.490716  3.511610  5.609347
   H (  8)  5.667811  5.071898  5.667822  3.614242  2.561011  3.614247
   H (  9)  7.080778  5.577263  4.987601  5.609361  3.511587  2.490708
   H ( 10)  2.490711  3.511583  5.609356  4.987602  5.577264  7.080771
   H ( 11)  3.614255  2.561020  3.614243  5.667823  5.071907  5.667812
   H ( 12)  5.609355  3.511622  2.490720  7.080781  5.577256  4.987614
   He( 13) 22.425204 20.729903 19.215060 21.363341 19.570624 17.966265
   He( 14) 17.475919 18.253681 19.330611 16.281362 17.108212 18.259909
             H (  7)   H (  8)   H (  9)   H ( 10)   H ( 11)   H ( 12)
   H (  8)  2.484195
   H (  9)  4.965978  2.484223
   H ( 10)  7.477218  7.952620  8.976059
   H ( 11)  7.952632  7.632917  7.952623  2.484217
   H ( 12)  8.976065  7.952634  7.477221  4.965971  2.484195
   He( 13) 20.507217 18.663457 17.033984 23.659272 22.143735 20.716882
   He( 14) 15.420401 16.258444 17.451505 18.934654 19.684364 20.617284
             He( 13)
   He( 14) 20.000000


 Q-Chem warning in module /home/nmayhall/qcSoftware/qchem/qchem.svn-casman/forms1/BasisType.C, line 1375:

 SAD: How to set up polarization functions for non-Pople basis?

 Requested basis set is rimp2-VDZ
 There are 82 shells and 186 basis functions
 Job number = 2, Threshold = 1.00E-12
Integral type ranges set in mkLRange.C for JobNum: 2  <1-7|1-7>
Symmetry turned off temporarily
 Using the largest function pair in Schwarz integrals
Total number of integrals generated =             977
Symmetry turned back on
 A cutoff of  1.0D-12 yielded    251 shell pairs
 There are       251 function pairs
 Job number = 11, Threshold = 1.00E-12
Integral type ranges set in mkLRange.C for JobNum: 11  <1-1|8-8>

 -------------------------------------------------------
 OpenMP Integral Computing Module                       
 Release: version 1.0, May 2013, Q-Chem Inc. Pittsburgh 
 -------------------------------------------------------
 Integral Job Info:
 Integral job number is                      11
 Integral operator is                         1
 short-range coefficients                     0
 long-range coefficients              100000000
 Omega coefficients                           0
 if combine SR and LR in K                    0
 Integral screening is                        0
 Integral computing path is                   2
 max size of driver memory is            800000
 size of driver memory is                 11780
 size of scratch memory is               800000
 max col of scratch BK array                289
 max len of scratch array in speh3            1
 max len of scratch index in speh4            2
 max int batch size is                      520
 min int batch size is                       52
 fixed nKL is                               520
 max L of basis functions is                  0
 order of int derivative is                   0
 number of shells is                         28
 number of basis is                          28
 number of cartesian basis is                28
 number of contracted shell pairs           251
 number of primitive shell pairs            695
 maxK2 (contraction) of shell pair            9
 max number of K2 of shell pair               1
 max number of CS2 of shell pair            132
 max number of PS2 of shell pair            396
 mem total for path MDJ                    6600
 -------------------------------------------------------
 Smallest overlap matrix eigenvalue = 1.87E-01
 Multipole matrices computed through 2nd order

  Scale SEOQF with 1.000000e-02/1.000000e-02/1.000000e-02

 Standard Electronic Orientation quadrupole field applied
 Nucleus-field energy     =    -0.0000000014 hartrees
GuessMan:  IGuess = 1000
 Guess MOs from SCF MO coefficient file
 Reading MOs from coefficient file
 Reading MOs from coefficient file
scfman initvdwdat 
 A restricted Hartree-Fock SCF calculation will be
 performed using Geometric Direct Minimization
 SCF converges when RMS gradient is below 1.0E-08
Finding J and K together
 Job number = 22, Threshold = 1.00E-12
Integral type ranges set in mkLRange.C for JobNum: 22  <1-1|1-1>
Storing 5749.01% of integrals
Total number of integrals generated =           28069
 MakeJK  time:  CPU       0.01 s  wall       0.01 s
Fock build time:  0.01 s (CPU) 0.01 s (wall)
 ---------------------------------------
  Cycle       Energy        RMS Gradient
 ---------------------------------------
    1     -11.6502452223      2.25E-04  00000 Normal BFGS step
Finding J and K together
 Job number = 22, Threshold = 1.00E-12
Integral type ranges set in mkLRange.C for JobNum: 22  <1-1|1-1>
Storing 5749.01% of integrals
Reusing in-core integrals buffer for job 22
 MakeJK  time:  CPU       0.00 s  wall       0.00 s
Fock build time:  0.00 s (CPU) 0.00 s (wall)
    2     -11.6502452357      2.05E-09  00000 Convergence criterion met
 ---------------------------------------
 SCF time:  CPU 0.01 s  wall 0.01 s
 Obtaining Corresponding orbitals

 Forming corresponding orbitals block-by-block...
 Size of singly occupied alpha block:      12 : 12.0000
 Size of doubly occupied block:             2 : 2.0000
 Size of singly occupied beta block:        0 : 0.0000
 Size of unoccupied block:                 14 : 14.0000
 Use scf_boys =     0 (Canonical)
                    1 (Boys)
                    2 (Pipek-Mezey)
                    3 (ER)
 Build new fock matrix
 I'm here
 I'm here
 Calling AOints...
 Job number = 22, Threshold = 1.00E-12
Integral type ranges set in mkLRange.C for JobNum: 22  <1-1|1-1>
Storing 5749.01% of integrals
 done.
 E(SCF): disk=    -11.650245235655 current=    -11.650245235655 diff=   5.329e-15
 SCF   energy in the final basis set = -11.6502452357
 Total energy in the final basis set = -11.6502452357
 DevKeyword Parameters: 
 1sf_heis_projection                   1
  heisenberg_n_roots                 100
scf_corresponding_orbs                   1


 ========================================================
                       In SF-CAS-CI                      
 ========================================================
 DevKeyword Parameters: 
 1sf_heis_projection                   1
  heisenberg_n_roots                 100
scf_corresponding_orbs                   1

 Forming orbitals for SF-CAS calculation.
NBas   : 28
NOrb   : 28
NDOcc  : 2
NSOcc  : 12
NDVir  : 14
ISpin  : 0
e_hf: -11.65024524
 Using OPT1 Orbitals: Favg | Favg | Favg 
 A/B mix in Doubly occupied F  : 0.50000000
 A/B mix in Singly occupied F  : 0.50000000
 A/B mix in Doubly unoccupied F: 0.50000000
 Max of F(beta)ds      : 1.238e-15
 Max of F(alpha)sv     : 9.979e-12
 Max of F(average)dv   : 1.178e-10
 Orbital Energies  (D):
    1    -0.91413749    -0.91413749
    2    -0.91412767    -0.91412767
 Orbital Energies  (S):
    3    -0.26535495    -0.26535495
    4    -0.24027642    -0.24027642
    5    -0.22766240    -0.22766240
    6    -0.20351373    -0.20351373
    7    -0.20253393    -0.20253393
    8    -0.17885949    -0.17885949
    9    -0.16544951    -0.16544951
   10    -0.16515559    -0.16515559
   11    -0.15334848    -0.15334848
   12    -0.12954881    -0.12954881
   13    -0.12133990    -0.12133990
   14    -0.09128860    -0.09128860
 Orbital Energies  (V):
   15     0.89705146     0.89705146
   16     0.92241989     0.92241989
   17     0.94475420     0.94475420
   18     0.96919681     0.96919681
   19     0.98399492     0.98399492
   20     1.03382336     1.03382336
   21     1.05255898     1.05255898
   22     1.07919959     1.07919959
   23     1.08789529     1.08789529
   24     1.14825705     1.14825705
   25     1.16628253     1.16628253
   26     1.30704079     1.30704079
   27     1.39984847     1.39984847
   28     1.39985829     1.39985829
 tr(Pa)     :   14.0000000000
 tr(Pb)     :    2.0000000000
 E(core) with new P : -33.81375163
 E(HF) with new P   : -11.65024524
 Difference in Ehf  :  -4.7962e-14

 Number of spin flips: 1
 Use cas_local =    0 (Canonical)
                    1 (Boys)
                    2 (Pipek-Mezey)
                    3 (ER)
 Using Boys orbitals in casman
 
 
 
Calling Get_Boys in C++
 
 
 
Orbital 6 Variance 30.64077258
Orbital 1 Variance 31.60204915
Orbital 8 Variance 32.09210908
Orbital 12 Variance 35.72748358
Orbital 3 Variance 42.76429335
Orbital 10 Variance 44.55306891
Orbital 9 Variance 50.85613636
Orbital 4 Variance 51.58230557
Orbital 2 Variance 52.31438674
Orbital 11 Variance 55.59228939
Orbital 5 Variance 62.31786872
Orbital 7 Variance 63.29625859
          ***** NUMBER OF SADDLE POINTS SO FAR = 0 ******

Initially in boys_jacobi.C before sweep, get_boys, boysval = 654.197165
In BOYS_JACOBI SWEEPS for get_boys, ending in round     5  because max_diff = 5.965633e-07


---> BEGIN 2nd Der Calculation    ******  
Guessing MaxD =  20 and MinD = 10
in get_boys.C: p = 0 guessthresh  89.6189603205 numsofar 10 MinD 10
DimInGuess 10 mineval  88.6189603205 guessthresh  89.6189603205
round 0 sizeofsub 10 eval0 8.861818e+01 diffeval0 1.000876e+05 length_qM 2.349401e-02 thresh 1.000000e-08
round 1 sizeofsub 11 eval0 8.861818e+01 diffeval0 2.931281e-06 length_qM 1.195911e-05 thresh 1.000000e-08
round 2 sizeofsub 12 eval0 8.861818e+01 diffeval0 1.514877e-11 length_qM 1.304821e-07 thresh 1.000000e-08
Converged to smallest eigenvalue: eval0 8.861818e+01

Success!!! No Negative Eigenvalues: Ending Get Boys in C++ ...Bye Bye
Orbital 6 Variance 2.79713794
Orbital 8 Variance 2.79713869
Orbital 4 Variance 2.80987091
Orbital 11 Variance 2.80987092
Orbital 10 Variance 2.81002730
Orbital 9 Variance 2.81002733
Orbital 12 Variance 2.81002957
Orbital 7 Variance 2.81003027
Orbital 1 Variance 2.82688969
Orbital 5 Variance 2.82688986
Orbital 2 Variance 2.82689055
Orbital 3 Variance 2.82689069
EXECUTING ORTHO_FUNC DESTRUCTOR

 Dimensions of orbital sub-spaces:    
 Number Hole Orbs:Alpha:Beta:       2    2    2
 Number Active Orbs:Alpha:Beta:    12   11    1
 Number Part Orbs:Alpha:Beta:      14    0    0

 Dimensions in SF-RAS-hp calculation: 
 Number of active space determinants:  144
 Number of hole space determinants:    1608
 Number of part space determinants:    11256
 Number of hole-part determinants:     130060
 Total 1x space:                       13008
 Total singles space:                  143068
 REM_MEM_TOT: 2000
 Memory Used: 0
 Memory Left: 2000
 Memory Need: 2
 Constructing 1e MO integrals
 Form (P|Q)**(-1/2)...
 Job number = 66, Threshold = 1.00E-12
Integral type ranges set in mkLRange.C for JobNum: 66  <2-7|2-7>
Symmetry turned off temporarily
Storing 5749.01% of integrals
Total number of integrals generated =           19965
Symmetry turned back on
 Forming (pq|P)...
 Forming Active-Active (aa|P) integrals...

 Entering first-index batching code with I1Strt =    3 batch size =   12
 Job number = 65, Threshold = 1.00E-12
Integral type ranges set in mkLRange.C for JobNum: 65  <1-1|2-7>
Symmetry turned off temporarily
Storing 5749.01% of integrals
Total number of integrals generated =           49698
Symmetry turned back on
 Forming Active-Active B integrals...
 Contracting B matrices to form 2e integrals. 
 Forming 2J-K over o,v with exact integrals
 Calling AOints... Job number = 22, Threshold = 1.00E-12
Integral type ranges set in mkLRange.C for JobNum: 22  <1-1|1-1>
Storing 5749.01% of integrals
Total number of integrals generated =           28069
 done.

 ROHF energy found on disk: 
 E(ROHF):         -11.65024524
-11.65024524
 First 10 Diagonal elements of H: 
 11111111111_ | 1___________        -11.22360711
 11111111111_ | _1__________        -11.11850770
 11111111111_ | __1_________        -11.10659146
 11111111111_ | ___1________        -11.15559397
 11111111111_ | ____1_______        -11.08707762
 11111111111_ | _____1______        -11.21505951
 11111111111_ | ______1_____        -11.10268802
 11111111111_ | _______1____        -11.15584760
 11111111111_ | ________1___        -11.22050865
 11111111111_ | _________1__        -11.11333218
 Fill S2_CAS Matrix...  done.
 Fill H_CAS Matrix...  done.

 Diagonalizing H_CAS 
 Entering cast_sfcas_to_sfcis
 ===================================================================
 Theory           State:          Energy (au)       (eV)       <S2>
 -------------------------------------------------------------------
 SF-CAS               1:       -11.6693018332     0.0000    30.0000
 SF-CAS               2:       -11.6654549435     0.1047    30.0000
 SF-CAS               3:       -11.6643593196     0.1345    30.0000
 SF-CAS               4:       -11.6618081267     0.2039    30.0000
 SF-CAS               5:       -11.6607649789     0.2323    30.0000
 SF-CAS               6:       -11.6600421125     0.2520    30.0000
 SF-CAS               7:       -11.6591933090     0.2751    30.0000
 SF-CAS               8:       -11.6563455819     0.3526    30.0000
 SF-CAS               9:       -11.6555497286     0.3742    30.0000
 SF-CAS              10:       -11.6533233933     0.4348    30.0000
 SF-CAS              11:       -11.6521162407     0.4676    30.0000
 SF-CAS              12:       -11.6502452357     0.5186    42.0000
 SF-CAS              13:       -11.3020641042     9.9931    30.0000
 SF-CAS              14:       -11.2937813907    10.2185    30.0000
 SF-CAS              15:       -11.2920576565    10.2654    30.0000
 SF-CAS              16:       -11.2860815916    10.4281    30.0000
 SF-CAS              17:       -11.2797742790    10.5997    30.0000
 SF-CAS              18:       -11.2785213286    10.6338    30.0000
 SF-CAS              19:       -11.2746181881    10.7400    30.0000
 SF-CAS              20:       -11.2739393565    10.7585    30.0000
 SF-CAS              21:       -11.2710633686    10.8367    30.0000
 SF-CAS              22:       -11.2684558110    10.9077    30.0000
 SF-CAS              23:       -11.2668796622    10.9506    30.0000
 SF-CAS              24:       -11.2627696090    11.0624    30.0000
 SF-CAS              25:       -11.2565381705    11.2320    30.0000
 SF-CAS              26:       -11.2549214603    11.2760    30.0000
 SF-CAS              27:       -11.2521005031    11.3527    30.0000
 SF-CAS              28:       -11.2470439706    11.4903    30.0000
 SF-CAS              29:       -11.2459988259    11.5188    30.0000
 SF-CAS              30:       -11.2422016194    11.6221    30.0000
 SF-CAS              31:       -11.2416931289    11.6359    30.0000
 SF-CAS              32:       -11.2374135269    11.7524    30.0000
 SF-CAS              33:       -11.2366979647    11.7719    30.0000
 SF-CAS              34:       -11.2338649076    11.8490    30.0000
 SF-CAS              35:       -11.2331982143    11.8671    30.0000
 SF-CAS              36:       -11.2311969819    11.9216    30.0000
 SF-CAS              37:       -11.2277192893    12.0162    30.0000
 SF-CAS              38:       -11.2258398328    12.0673    30.0000
 SF-CAS              39:       -11.2252926793    12.0822    30.0000
 SF-CAS              40:       -11.2227311946    12.1519    30.0000
 SF-CAS              41:       -11.2217647909    12.1782    30.0000
 SF-CAS              42:       -11.2202101998    12.2205    30.0000
 SF-CAS              43:       -11.2189575314    12.2546    30.0000
 SF-CAS              44:       -11.2185024627    12.2670    30.0000
 SF-CAS              45:       -11.2161202639    12.3318    30.0000
 SF-CAS              46:       -11.2141803045    12.3846    30.0000
 SF-CAS              47:       -11.2137802413    12.3955    30.0000
 SF-CAS              48:       -11.2036083709    12.6723    30.0000
 SF-CAS              49:       -11.2022291000    12.7098    30.0000
 SF-CAS              50:       -11.1974061700    12.8411    30.0000
 SF-CAS              51:       -11.1911687011    13.0108    30.0000
 SF-CAS              52:       -11.1904894999    13.0293    30.0000
 SF-CAS              53:       -11.1822449731    13.2536    30.0000
 SF-CAS              54:       -11.1803758503    13.3045    30.0000
 SF-CAS              55:       -11.1802839805    13.3070    30.0000
 SF-CAS              56:       -11.1773197698    13.3876    30.0000
 SF-CAS              57:       -11.1761326385    13.4199    30.0000
 SF-CAS              58:       -11.1731234907    13.5018    30.0000
 SF-CAS              59:       -11.1705660479    13.5714    30.0000
 SF-CAS              60:       -11.1704088266    13.5757    30.0000
 SF-CAS              61:       -11.1682843031    13.6335    30.0000
 SF-CAS              62:       -11.1673812360    13.6581    30.0000
 SF-CAS              63:       -11.1661352714    13.6920    30.0000
 SF-CAS              64:       -11.1602883390    13.8511    30.0000
 SF-CAS              65:       -11.1600135150    13.8586    30.0000
 SF-CAS              66:       -11.1564106807    13.9566    30.0000
 SF-CAS              67:       -11.1556190561    13.9782    30.0000
 SF-CAS              68:       -11.1546205376    14.0053    30.0000
 SF-CAS              69:       -11.1512949769    14.0958    30.0000
 SF-CAS              70:       -11.1507470688    14.1107    30.0000
 SF-CAS              71:       -11.1464941457    14.2265    30.0000
 SF-CAS              72:       -11.1457215282    14.2475    30.0000
 SF-CAS              73:       -11.1429311375    14.3234    30.0000
 SF-CAS              74:       -11.1418928145    14.3517    30.0000
 SF-CAS              75:       -11.1400247039    14.4025    30.0000
 SF-CAS              76:       -11.1389124717    14.4328    30.0000
 SF-CAS              77:       -11.1365294540    14.4976    30.0000
 SF-CAS              78:       -11.1359132891    14.5144    30.0000
 SF-CAS              79:       -11.1318741411    14.6243    30.0000
 SF-CAS              80:       -11.1313037529    14.6398    30.0000
 SF-CAS              81:       -11.1290658346    14.7007    30.0000
 SF-CAS              82:       -11.1287113924    14.7104    30.0000
 SF-CAS              83:       -11.1276448384    14.7394    30.0000
 SF-CAS              84:       -11.1256076726    14.7948    30.0000
 SF-CAS              85:       -11.1252926898    14.8034    30.0000
 SF-CAS              86:       -11.1240067974    14.8384    30.0000
 SF-CAS              87:       -11.1225715290    14.8774    30.0000
 SF-CAS              88:       -11.1222566989    14.8860    30.0000
 SF-CAS              89:       -11.1204098740    14.9363    30.0000
 SF-CAS              90:       -11.1197372263    14.9546    30.0000
 SF-CAS              91:       -11.1157063251    15.0642    30.0000
 SF-CAS              92:       -11.1152041398    15.0779    30.0000
 SF-CAS              93:       -11.1139681518    15.1115    30.0000
 SF-CAS              94:       -11.1121022529    15.1623    30.0000
 SF-CAS              95:       -11.1092894176    15.2389    30.0000
 SF-CAS              96:       -11.1088809096    15.2500    30.0000
 SF-CAS              97:       -11.1047020138    15.3637    30.0000
 SF-CAS              98:       -11.1031953770    15.4047    30.0000
 SF-CAS              99:       -11.1005101898    15.4778    30.0000
 SF-CAS             100:       -11.0991241925    15.5155    30.0000
 SF-CAS             101:       -11.0974001575    15.5624    30.0000
 SF-CAS             102:       -11.0937735232    15.6611    30.0000
 SF-CAS             103:       -11.0918382438    15.7137    30.0000
 SF-CAS             104:       -11.0891652795    15.7865    30.0000
 SF-CAS             105:       -11.0890432258    15.7898    30.0000
 SF-CAS             106:       -11.0878798710    15.8215    30.0000
 SF-CAS             107:       -11.0874291307    15.8337    30.0000
 SF-CAS             108:       -11.0845997817    15.9107    30.0000
 SF-CAS             109:       -11.0830300549    15.9534    30.0000
 SF-CAS             110:       -11.0808030381    16.0140    30.0000
 SF-CAS             111:       -11.0785411279    16.0756    30.0000
 SF-CAS             112:       -11.0784043058    16.0793    30.0000
 SF-CAS             113:       -11.0718440985    16.2578    30.0000
 SF-CAS             114:       -11.0715701011    16.2653    30.0000
 SF-CAS             115:       -11.0695941808    16.3190    30.0000
 SF-CAS             116:       -11.0695346718    16.3207    30.0000
 SF-CAS             117:       -11.0647414542    16.4511    30.0000
 SF-CAS             118:       -11.0644840799    16.4581    30.0000
 SF-CAS             119:       -11.0598954480    16.5830    30.0000
 SF-CAS             120:       -11.0563236948    16.6801    30.0000
 SF-CAS             121:       -11.0545062996    16.7296    30.0000
 SF-CAS             122:       -11.0536180126    16.7538    30.0000
 SF-CAS             123:       -11.0503880250    16.8417    30.0000
 SF-CAS             124:       -11.0495020769    16.8658    30.0000
 SF-CAS             125:       -11.0485953911    16.8904    30.0000
 SF-CAS             126:       -11.0484586770    16.8942    30.0000
 SF-CAS             127:       -11.0415703651    17.0816    30.0000
 SF-CAS             128:       -11.0372865549    17.1982    30.0000
 SF-CAS             129:       -11.0343408173    17.2783    30.0000
 SF-CAS             130:       -11.0330155945    17.3144    30.0000
 SF-CAS             131:       -11.0327136875    17.3226    30.0000
 SF-CAS             132:       -11.0296386403    17.4063    30.0000
 SF-CAS             133:       -11.0197662707    17.6749    30.0000
 SF-CAS             134:       -11.0183184601    17.7143    30.0000
 SF-CAS             135:       -11.0176800646    17.7317    30.0000
 SF-CAS             136:       -11.0082051898    17.9895    30.0000
 SF-CAS             137:       -11.0031902592    18.1260    30.0000
 SF-CAS             138:       -11.0014321613    18.1738    30.0000
 SF-CAS             139:       -11.0004880915    18.1995    30.0000
 SF-CAS             140:       -10.9955403302    18.3342    30.0000
 SF-CAS             141:       -10.9840195093    18.6477    30.0000
 SF-CAS             142:       -10.9748743038    18.8965    30.0000
 SF-CAS             143:       -10.9553079463    19.4290    30.0000
 SF-CAS             144:       -10.9519077548    19.5215    30.0000
 ===================================================================

              Active Space Coefficients > 0.20
 -------------------------------------------------------------------
 State  1                       Configuration         Coeff.   <S^2>
 -------------------------------------------------------------------
                  11111111111_ | ___________1       0.280895  31.000
                  1111111111_1 | __________1_       0.227466  31.000
                  111111111_11 | _________1__       0.280913  31.000
                  11111111_111 | ________1___       0.280914  31.000
                  1111111_1111 | _______1____       0.473874  31.000
                  111111_11111 | ______1_____       0.280880  31.000
                  11111_111111 | _____1______      -0.473889  31.000
                  111_11111111 | ___1________       0.227476  31.000
 -------------------------------------------------------------------
 State  2                       Configuration         Coeff.   <S^2>
 -------------------------------------------------------------------
                  1111111111_1 | __________1_       0.431606  31.000
                  1111111_1111 | _______1____       0.316684  31.000
                  11111_111111 | _____1______       0.316678  31.000
                  1111_1111111 | ____1_______      -0.245362  31.000
                  111_11111111 | ___1________      -0.431591  31.000
                  11_111111111 | __1_________      -0.245391  31.000
                  1_1111111111 | _1__________       0.245405  31.000
                  _11111111111 | 1___________      -0.245356  31.000
 -------------------------------------------------------------------
 State  3                       Configuration         Coeff.   <S^2>
 -------------------------------------------------------------------
                  11111111111_ | ___________1       0.447509  31.000
                  111111111_11 | _________1__      -0.447485  31.000
                  11111111_111 | ________1___       0.447477  31.000
                  111111_11111 | ______1_____      -0.447503  31.000
 -------------------------------------------------------------------
 State  4                       Configuration         Coeff.   <S^2>
 -------------------------------------------------------------------
                  1111111111_1 | __________1_      -0.483260  31.000
                  1111111_1111 | _______1____       0.291287  31.000
                  11111_111111 | _____1______      -0.291273  31.000
                  1111_1111111 | ____1_______       0.274488  31.000
                  111_11111111 | ___1________      -0.483263  31.000
                  11_111111111 | __1_________      -0.274404  31.000
                  1_1111111111 | _1__________      -0.274406  31.000
                  _11111111111 | 1___________      -0.274495  31.000
 -------------------------------------------------------------------
 State  5                       Configuration         Coeff.   <S^2>
 -------------------------------------------------------------------
                  11111111111_ | ___________1      -0.363145  31.000
                  1111111111_1 | __________1_       0.225956  31.000
                  111111111_11 | _________1__      -0.363208  31.000
                  11111111_111 | ________1___      -0.363200  31.000
                  1111111_1111 | _______1____       0.383774  31.000
                  111111_11111 | ______1_____      -0.363145  31.000
                  11111_111111 | _____1______      -0.383783  31.000
                  111_11111111 | ___1________       0.225957  31.000
 -------------------------------------------------------------------
 State  6                       Configuration         Coeff.   <S^2>
 -------------------------------------------------------------------
                  11111111111_ | ___________1       0.331652  31.000
                  111111111_11 | _________1__      -0.331553  31.000
                  11111111_111 | ________1___      -0.331560  31.000
                  111111_11111 | ______1_____       0.331659  31.000
                  1111_1111111 | ____1_______      -0.364445  31.000
                  11_111111111 | __1_________      -0.364482  31.000
                  1_1111111111 | _1__________      -0.364483  31.000
                  _11111111111 | 1___________       0.364437  31.000
 -------------------------------------------------------------------
 State  7                       Configuration         Coeff.   <S^2>
 -------------------------------------------------------------------
                  11111111111_ | ___________1       0.236036  31.000
                  1111111111_1 | __________1_       0.349449  31.000
                  111111111_11 | _________1__       0.235983  31.000
                  11111111_111 | ________1___      -0.235982  31.000
                  1111111_1111 | _______1____      -0.447936  31.000
                  111111_11111 | ______1_____      -0.236034  31.000
                  11111_111111 | _____1______      -0.447932  31.000
                  111_11111111 | ___1________      -0.349461  31.000
 -------------------------------------------------------------------
 State  8                       Configuration         Coeff.   <S^2>
 -------------------------------------------------------------------
                  11111111111_ | ___________1       0.266889  31.000
                  1111111111_1 | __________1_       0.307639  31.000
                  111111111_11 | _________1__       0.266865  31.000
                  11111111_111 | ________1___      -0.266873  31.000
                  1111111_1111 | _______1____       0.322118  31.000
                  111111_11111 | ______1_____      -0.266898  31.000
                  11111_111111 | _____1______       0.322107  31.000
                  1111_1111111 | ____1_______       0.274096  31.000
                  111_11111111 | ___1________      -0.307638  31.000
                  11_111111111 | __1_________       0.274140  31.000
                  1_1111111111 | _1__________      -0.274139  31.000
                  _11111111111 | 1___________       0.274097  31.000
 -------------------------------------------------------------------
 State  9                       Configuration         Coeff.   <S^2>
 -------------------------------------------------------------------
                  11111111111_ | ___________1       0.201272  31.000
                  111111111_11 | _________1__      -0.201294  31.000
                  11111111_111 | ________1___       0.201296  31.000
                  111111_11111 | ______1_____      -0.201278  31.000
                  1111_1111111 | ____1_______      -0.453405  31.000
                  11_111111111 | __1_________       0.453387  31.000
                  1_1111111111 | _1__________      -0.453389  31.000
                  _11111111111 | 1___________      -0.453402  31.000
 -------------------------------------------------------------------
 State  10                      Configuration         Coeff.   <S^2>
 -------------------------------------------------------------------
                  11111111111_ | ___________1       0.368153  31.000
                  111111111_11 | _________1__      -0.368148  31.000
                  11111111_111 | ________1___      -0.368146  31.000
                  111111_11111 | ______1_____       0.368155  31.000
                  1111_1111111 | ____1_______       0.334969  31.000
                  11_111111111 | __1_________       0.334980  31.000
                  1_1111111111 | _1__________       0.334974  31.000
                  _11111111111 | 1___________      -0.334972  31.000
 -------------------------------------------------------------------
 State  11                      Configuration         Coeff.   <S^2>
 -------------------------------------------------------------------
                  1111111111_1 | __________1_       0.387336  31.000
                  1111_1111111 | ____1_______       0.373575  31.000
                  111_11111111 | ___1________       0.387333  31.000
                  11_111111111 | __1_________      -0.373569  31.000
                  1_1111111111 | _1__________      -0.373570  31.000
                  _11111111111 | 1___________      -0.373571  31.000
 -------------------------------------------------------------------
 State  12                      Configuration         Coeff.   <S^2>
 -------------------------------------------------------------------
                  11111111111_ | ___________1       0.288675  31.000
                  1111111111_1 | __________1_      -0.288675  31.000
                  111111111_11 | _________1__       0.288675  31.000
                  11111111_111 | ________1___      -0.288675  31.000
                  1111111_1111 | _______1____       0.288675  31.000
                  111111_11111 | ______1_____      -0.288675  31.000
                  11111_111111 | _____1______       0.288675  31.000
                  1111_1111111 | ____1_______      -0.288675  31.000
                  111_11111111 | ___1________       0.288675  31.000
                  11_111111111 | __1_________      -0.288675  31.000
                  1_1111111111 | _1__________       0.288675  31.000
                  _11111111111 | 1___________      -0.288675  31.000
 -------------------------------------------------------------------
 State  13                      Configuration         Coeff.   <S^2>
 -------------------------------------------------------------------
 -------------------------------------------------------------------
 State  14                      Configuration         Coeff.   <S^2>
 -------------------------------------------------------------------
                  1111111_1111 | _____1______       0.298585  30.000
                  11111_111111 | _______1____       0.298585  30.000
 -------------------------------------------------------------------
 State  15                      Configuration         Coeff.   <S^2>
 -------------------------------------------------------------------
                  11111111111_ | _____1______       0.244238  30.000
                  111111111_11 | _____1______      -0.244251  30.000
                  11111111_111 | _______1____       0.244247  30.000
                  1111111_1111 | ______1_____       0.208919  30.000
                  1111111_1111 | ________1___      -0.208928  30.000
                  111111_11111 | _______1____      -0.244232  30.000
                  11111_111111 | _________1__      -0.208929  30.000
                  11111_111111 | ___________1       0.208928  30.000
 -------------------------------------------------------------------
 State  16                      Configuration         Coeff.   <S^2>
 -------------------------------------------------------------------
                  1111111111_1 | _______1____       0.240088  30.000
                  111_11111111 | _____1______      -0.240085  30.000
 -------------------------------------------------------------------
 State  17                      Configuration         Coeff.   <S^2>
 -------------------------------------------------------------------
                  1111111_1111 | ______1_____      -0.238531  30.000
                  1111111_1111 | ________1___       0.238532  30.000
                  11111_111111 | _________1__       0.238537  30.000
                  11111_111111 | ___________1      -0.238537  30.000
 -------------------------------------------------------------------
 State  18                      Configuration         Coeff.   <S^2>
 -------------------------------------------------------------------
                  1111111111_1 | _______1____       0.291716  30.000
                  1111111_1111 | __________1_      -0.282635  30.000
                  11111_111111 | ___1________       0.282636  30.000
                  111_11111111 | _____1______       0.291720  30.000
 -------------------------------------------------------------------
 State  19                      Configuration         Coeff.   <S^2>
 -------------------------------------------------------------------
                  1111111111_1 | _1__________       0.217595  30.000
                  1111111111_1 | ____1_______      -0.217478  30.000
                  1111_1111111 | __________1_      -0.208617  30.000
                  111_11111111 | 1___________       0.217473  30.000
                  111_11111111 | __1_________      -0.217587  30.000
                  11_111111111 | ___1________       0.208759  30.000
                  1_1111111111 | __________1_      -0.208764  30.000
                  _11111111111 | ___1________      -0.208615  30.000
 -------------------------------------------------------------------
 State  20                      Configuration         Coeff.   <S^2>
 -------------------------------------------------------------------
                  11111111111_ | _____1______       0.247414  30.000
                  111111111_11 | _____1______       0.247213  30.000
                  11111111_111 | _______1____       0.247207  30.000
                  1111111_1111 | ______1_____      -0.229189  30.000
                  1111111_1111 | ________1___      -0.228990  30.000
                  111111_11111 | _______1____       0.247409  30.000
                  11111_111111 | _________1__       0.228997  30.000
                  11111_111111 | ___________1       0.229190  30.000
 -------------------------------------------------------------------
 State  21                      Configuration         Coeff.   <S^2>
 -------------------------------------------------------------------
                  1111111_1111 | _____1______      -0.260292  30.000
                  1111111_1111 | __________1_      -0.230340  30.000
                  11111_111111 | ___1________       0.230341  30.000
                  11111_111111 | _______1____       0.260286  30.000
 -------------------------------------------------------------------
 State  22                      Configuration         Coeff.   <S^2>
 -------------------------------------------------------------------
                  11111111111_ | 1___________       0.207637  30.000
                  11111111111_ | ________1___      -0.304490  30.000
                  111111111_11 | __1_________      -0.207618  30.000
                  111111111_11 | ______1_____       0.304464  30.000
                  11111111_111 | _1__________       0.207612  30.000
                  11111111_111 | ___________1       0.304463  30.000
                  111111_11111 | ____1_______      -0.207635  30.000
                  111111_11111 | _________1__      -0.304487  30.000
 -------------------------------------------------------------------
 State  23                      Configuration         Coeff.   <S^2>
 -------------------------------------------------------------------
                  1111111111_1 | _______1____      -0.229263  30.000
                  1111111_1111 | _____1______      -0.279521  30.000
                  1111111_1111 | __________1_       0.240155  30.000
                  11111_111111 | ___1________       0.240149  30.000
                  11111_111111 | _______1____      -0.279525  30.000
                  111_11111111 | _____1______       0.229263  30.000
 -------------------------------------------------------------------
 State  24                      Configuration         Coeff.   <S^2>
 -------------------------------------------------------------------
 -------------------------------------------------------------------
 State  25                      Configuration         Coeff.   <S^2>
 -------------------------------------------------------------------
                  1111_1111111 | __________1_      -0.238743  30.000
                  11_111111111 | ___1________       0.238568  30.000
                  1_1111111111 | __________1_       0.238570  30.000
                  _11111111111 | ___1________       0.238739  30.000
 -------------------------------------------------------------------
 State  26                      Configuration         Coeff.   <S^2>
 -------------------------------------------------------------------
                  1111111111_1 | _1__________       0.235588  30.000
                  1111111111_1 | ____1_______      -0.235412  30.000
                  111_11111111 | 1___________      -0.235413  30.000
                  111_11111111 | __1_________       0.235588  30.000
 -------------------------------------------------------------------
 State  27                      Configuration         Coeff.   <S^2>
 -------------------------------------------------------------------
                  11111111111_ | 1___________       0.233577  30.000
                  111111111_11 | __1_________      -0.233600  30.000
                  11111111_111 | _1__________      -0.233598  30.000
                  111111_11111 | ____1_______       0.233577  30.000
                  1111_1111111 | ______1_____       0.231890  30.000
                  11_111111111 | _________1__       0.231911  30.000
                  1_1111111111 | ________1___       0.231908  30.000
                  _11111111111 | ___________1      -0.231891  30.000
 -------------------------------------------------------------------
 State  28                      Configuration         Coeff.   <S^2>
 -------------------------------------------------------------------
                  11111111111_ | ________1___      -0.276628  30.000
                  111111111_11 | ______1_____       0.276578  30.000
                  11111111_111 | ___________1      -0.276578  30.000
                  111111_11111 | _________1__       0.276631  30.000
 -------------------------------------------------------------------
 State  29                      Configuration         Coeff.   <S^2>
 -------------------------------------------------------------------
                  11111111111_ | ________1___      -0.284633  30.000
                  111111111_11 | ______1_____      -0.284678  30.000
                  11111111_111 | ___________1       0.284675  30.000
                  1111111_1111 | _____1______      -0.301339  30.000
                  111111_11111 | _________1__       0.284629  30.000
                  11111_111111 | _______1____      -0.301337  30.000
 -------------------------------------------------------------------
 State  30                      Configuration         Coeff.   <S^2>
 -------------------------------------------------------------------
                  11111111111_ | ________1___       0.260604  30.000
                  111111111_11 | ______1_____      -0.260507  30.000
                  11111111_111 | ___________1      -0.260501  30.000
                  111111_11111 | _________1__       0.260604  30.000
                  1111_1111111 | ______1_____      -0.271513  30.000
                  11_111111111 | _________1__       0.271592  30.000
                  1_1111111111 | ________1___      -0.271595  30.000
                  _11111111111 | ___________1      -0.271511  30.000
 -------------------------------------------------------------------
 State  31                      Configuration         Coeff.   <S^2>
 -------------------------------------------------------------------
                  1111111_1111 | ______1_____       0.206255  30.000
                  1111111_1111 | ________1___       0.206196  30.000
                  11111_111111 | _________1__      -0.206196  30.000
                  11111_111111 | ___________1      -0.206260  30.000
 -------------------------------------------------------------------
 State  32                      Configuration         Coeff.   <S^2>
 -------------------------------------------------------------------
                  11111111111_ | _____1______      -0.221825  30.000
                  1111111111_1 | _1__________       0.226208  30.000
                  1111111111_1 | ____1_______      -0.226272  30.000
                  111111111_11 | _____1______       0.221781  30.000
                  11111111_111 | _______1____       0.221780  30.000
                  1111111_1111 | ______1_____       0.259938  30.000
                  1111111_1111 | ________1___      -0.259920  30.000
                  111111_11111 | _______1____      -0.221822  30.000
                  11111_111111 | _________1__       0.259915  30.000
                  11111_111111 | ___________1      -0.259942  30.000
                  111_11111111 | 1___________       0.226274  30.000
                  111_11111111 | __1_________      -0.226214  30.000
 -------------------------------------------------------------------
 State  33                      Configuration         Coeff.   <S^2>
 -------------------------------------------------------------------
                  1111111111_1 | _1__________       0.213426  30.000
                  1111111111_1 | ____1_______       0.213357  30.000
                  1111_1111111 | __________1_       0.340447  30.000
                  111_11111111 | 1___________      -0.213355  30.000
                  111_11111111 | __1_________      -0.213432  30.000
                  11_111111111 | ___1________       0.340504  30.000
                  1_1111111111 | __________1_      -0.340510  30.000
                  _11111111111 | ___1________       0.340441  30.000
 -------------------------------------------------------------------
 State  34                      Configuration         Coeff.   <S^2>
 -------------------------------------------------------------------
                  11111111111_ | 1___________      -0.246082  30.000
                  111111111_11 | __1_________       0.246141  30.000
                  11111111_111 | _1__________       0.246130  30.000
                  111111_11111 | ____1_______      -0.246084  30.000
 -------------------------------------------------------------------
 State  35                      Configuration         Coeff.   <S^2>
 -------------------------------------------------------------------
                  1111111111_1 | _1__________      -0.235222  30.000
                  1111111111_1 | ____1_______      -0.235228  30.000
                  1111_1111111 | __________1_       0.210467  30.000
                  111_11111111 | 1___________      -0.235223  30.000
                  111_11111111 | __1_________      -0.235201  30.000
                  11_111111111 | ___1________      -0.210451  30.000
                  1_1111111111 | __________1_      -0.210450  30.000
                  _11111111111 | ___1________      -0.210467  30.000
 -------------------------------------------------------------------
 State  36                      Configuration         Coeff.   <S^2>
 -------------------------------------------------------------------
                  11111111111_ | 1___________      -0.240437  30.000
                  1111111111_1 | _______1____       0.283371  30.000
                  111111111_11 | __1_________      -0.240422  30.000
                  11111111_111 | _1__________       0.240422  30.000
                  1111111_1111 | __________1_      -0.221710  30.000
                  111111_11111 | ____1_______       0.240431  30.000
                  11111_111111 | ___1________       0.221708  30.000
                  1111_1111111 | ______1_____       0.242481  30.000
                  111_11111111 | _____1______       0.283377  30.000
                  11_111111111 | _________1__       0.242488  30.000
                  1_1111111111 | ________1___      -0.242484  30.000
                  _11111111111 | ___________1       0.242481  30.000
 -------------------------------------------------------------------
 State  37                      Configuration         Coeff.   <S^2>
 -------------------------------------------------------------------
                  11111111111_ | ________1___       0.240758  30.000
                  1111111111_1 | _1__________      -0.278374  30.000
                  1111111111_1 | ____1_______      -0.278399  30.000
                  111111111_11 | ______1_____       0.240766  30.000
                  11111111_111 | ___________1       0.240765  30.000
                  111111_11111 | _________1__       0.240755  30.000
                  111_11111111 | 1___________       0.278404  30.000
                  111_11111111 | __1_________       0.278371  30.000
 -------------------------------------------------------------------
 State  38                      Configuration         Coeff.   <S^2>
 -------------------------------------------------------------------
                  11111111111_ | 1___________      -0.274303  30.000
                  1111111111_1 | _1__________       0.205332  30.000
                  1111111111_1 | ____1_______      -0.205350  30.000
                  111111111_11 | __1_________       0.274221  30.000
                  11111111_111 | _1__________      -0.274222  30.000
                  111111_11111 | ____1_______       0.274311  30.000
                  1111_1111111 | ______1_____      -0.232423  30.000
                  1111_1111111 | __________1_       0.219597  30.000
                  111_11111111 | 1___________       0.205340  30.000
                  111_11111111 | __1_________      -0.205331  30.000
                  11_111111111 | ___1________      -0.219603  30.000
                  11_111111111 | _________1__       0.232409  30.000
                  1_1111111111 | ________1___      -0.232413  30.000
                  1_1111111111 | __________1_       0.219610  30.000
                  _11111111111 | ___1________       0.219591  30.000
                  _11111111111 | ___________1      -0.232419  30.000
 -------------------------------------------------------------------
 State  39                      Configuration         Coeff.   <S^2>
 -------------------------------------------------------------------
                  11111111111_ | 1___________       0.231576  30.000
                  111111111_11 | __1_________       0.231677  30.000
                  11111111_111 | _1__________      -0.231670  30.000
                  1111111_1111 | _____1______      -0.289824  30.000
                  1111111_1111 | __________1_       0.231488  30.000
                  111111_11111 | ____1_______      -0.231567  30.000
                  11111_111111 | ___1________      -0.231492  30.000
                  11111_111111 | _______1____       0.289828  30.000
 -------------------------------------------------------------------
 State  40                      Configuration         Coeff.   <S^2>
 -------------------------------------------------------------------
                  11111111111_ | _____1______       0.273263  30.000
                  111111111_11 | _____1______       0.273270  30.000
                  11111111_111 | _______1____      -0.273268  30.000
                  111111_11111 | _______1____      -0.273263  30.000
                  1111_1111111 | __________1_      -0.228363  30.000
                  11_111111111 | ___1________       0.228353  30.000
                  1_1111111111 | __________1_       0.228350  30.000
                  _11111111111 | ___1________       0.228364  30.000
 -------------------------------------------------------------------
 State  41                      Configuration         Coeff.   <S^2>
 -------------------------------------------------------------------
                  1111111111_1 | _1__________       0.244337  30.000
                  1111111111_1 | ____1_______      -0.244347  30.000
                  1111_1111111 | __________1_       0.284742  30.000
                  111_11111111 | 1___________      -0.244344  30.000
                  111_11111111 | __1_________       0.244344  30.000
                  11_111111111 | ___1________       0.284779  30.000
                  1_1111111111 | __________1_       0.284775  30.000
                  _11111111111 | ___1________      -0.284740  30.000
 -------------------------------------------------------------------
 State  42                      Configuration         Coeff.   <S^2>
 -------------------------------------------------------------------
                  11111111111_ | _____1______      -0.237228  30.000
                  1111111111_1 | _______1____      -0.238752  30.000
                  111111111_11 | _____1______      -0.237203  30.000
                  11111111_111 | _______1____       0.237206  30.000
                  111111_11111 | _______1____       0.237227  30.000
                  1111_1111111 | ______1_____      -0.205654  30.000
                  111_11111111 | _____1______       0.238755  30.000
                  11_111111111 | _________1__       0.205633  30.000
                  1_1111111111 | ________1___       0.205628  30.000
                  _11111111111 | ___________1       0.205654  30.000
 -------------------------------------------------------------------
 State  43                      Configuration         Coeff.   <S^2>
 -------------------------------------------------------------------
 -------------------------------------------------------------------
 State  44                      Configuration         Coeff.   <S^2>
 -------------------------------------------------------------------
                  11111111111_ | 1___________       0.202594  30.000
                  1111111111_1 | _1__________       0.244131  30.000
                  1111111111_1 | ____1_______       0.244107  30.000
                  1111111111_1 | _______1____      -0.258662  30.000
                  111111111_11 | __1_________       0.202585  30.000
                  11111111_111 | _1__________       0.202584  30.000
                  111111_11111 | ____1_______       0.202594  30.000
                  1111_1111111 | ______1_____      -0.209831  30.000
                  111_11111111 | 1___________       0.244118  30.000
                  111_11111111 | __1_________       0.244137  30.000
                  111_11111111 | _____1______       0.258667  30.000
                  11_111111111 | _________1__       0.209818  30.000
                  1_1111111111 | ________1___       0.209817  30.000
                  _11111111111 | ___________1       0.209830  30.000
 -------------------------------------------------------------------
 State  45                      Configuration         Coeff.   <S^2>
 -------------------------------------------------------------------
                  1111111111_1 | _______1____       0.308774  30.000
                  1111111_1111 | _____1______       0.226909  30.000
                  11111_111111 | _______1____      -0.226895  30.000
                  1111_1111111 | ______1_____       0.265180  30.000
                  111_11111111 | _____1______       0.308767  30.000
                  11_111111111 | _________1__       0.265165  30.000
                  1_1111111111 | ________1___      -0.265174  30.000
                  _11111111111 | ___________1       0.265169  30.000
 -------------------------------------------------------------------
 State  46                      Configuration         Coeff.   <S^2>
 -------------------------------------------------------------------
                  11111111111_ | 1___________      -0.207368  30.000
                  111111111_11 | __1_________      -0.207388  30.000
                  11111111_111 | _1__________      -0.207385  30.000
                  1111111_1111 | ______1_____      -0.286791  30.000
                  1111111_1111 | ________1___      -0.286807  30.000
                  1111111_1111 | __________1_       0.334403  30.000
                  111111_11111 | ____1_______      -0.207397  30.000
                  11111_111111 | ___1________       0.334386  30.000
                  11111_111111 | _________1__      -0.286777  30.000
                  11111_111111 | ___________1      -0.286820  30.000
 -------------------------------------------------------------------
 State  47                      Configuration         Coeff.   <S^2>
 -------------------------------------------------------------------
                  11111111111_ | _____1______       0.290822  30.000
                  111111111_11 | _____1______      -0.290824  30.000
                  11111111_111 | _______1____      -0.290828  30.000
                  1111111_1111 | ______1_____       0.243005  30.000
                  1111111_1111 | ________1___      -0.242961  30.000
[...]
   697     1319.90434503    10555.31221958        2.00000000      cm-1
   698     1325.08689334    10560.49476788        6.00000000      cm-1
   699     1335.57719565    10570.98507019       12.00000000      cm-1
   700     1338.95852558    10574.36640012        2.00000000      cm-1
   701     1340.02854291    10575.43641746       20.00000000      cm-1
   702     1345.09557387    10580.50344841        2.00000000      cm-1
   703     1364.33205691    10599.73993145        2.00000000      cm-1
   704     1370.87604943    10606.28392397       12.00000000      cm-1
   705     1379.76312640    10615.17100095        6.00000000      cm-1
   706     1387.56548327    10622.97335781        0.00000000      cm-1
   707     1402.44155614    10637.84943068       20.00000000      cm-1
   708     1404.25114216    10639.65901670       -0.00000000      cm-1
   709     1416.09498815    10651.50286269        0.00000000      cm-1
   710     1419.57890991    10654.98678446        6.00000000      cm-1
   711     1420.40026982    10655.80814436       20.00000000      cm-1
   712     1421.25409918    10656.66197372       20.00000000      cm-1
   713     1430.36045918    10665.76833372       12.00000000      cm-1
   714     1440.08237961    10675.49025416        0.00000000      cm-1
   715     1441.90490373    10677.31277828        2.00000000      cm-1
   716     1452.78945455    10688.19732909        2.00000000      cm-1
   717     1477.92931286    10713.33718740        6.00000000      cm-1
   718     1480.29742981    10715.70530436       12.00000000      cm-1
   719     1485.09902616    10720.50690071        2.00000000      cm-1
   720     1488.22484796    10723.63272250        6.00000000      cm-1
   721     1490.34242112    10725.75029566       12.00000000      cm-1
   722     1507.53623782    10742.94411236       12.00000000      cm-1
   723     1520.58804357    10755.99591811        2.00000000      cm-1
   724     1520.78888275    10756.19675729        6.00000000      cm-1
   725     1523.09366887    10758.50154341        6.00000000      cm-1
   726     1546.64078519    10782.04865973        2.00000000      cm-1
   727     1562.58064367    10797.98851822       12.00000000      cm-1
   728     1609.60420259    10845.01207713       30.00000000      cm-1
   729     1626.26281881    10861.67069335       20.00000000      cm-1
   730     1626.85445262    10862.26232716        2.00000000      cm-1
   731     1629.21442913    10864.62230367        2.00000000      cm-1
   732     1631.73912889    10867.14700344       12.00000000      cm-1
   733     1633.74975669    10869.15763124       12.00000000      cm-1
   734     1636.63820084    10872.04607538        6.00000000      cm-1
   735     1648.81554588    10884.22342042        2.00000000      cm-1
   736     1652.80262382    10888.21049836        2.00000000      cm-1
   737     1653.82146437    10889.22933891        6.00000000      cm-1
   738     1661.31131601    10896.71919055        6.00000000      cm-1
   739     1668.01686882    10903.42474337       12.00000000      cm-1
   740     1668.36609336    10903.77396791        6.00000000      cm-1
   741     1669.77941185    10905.18728640       20.00000000      cm-1
   742     1680.18601905    10915.59389359        0.00000000      cm-1
   743     1680.28556910    10915.69344364        6.00000000      cm-1
   744     1700.33314943    10935.74102397       12.00000000      cm-1
   745     1701.62797150    10937.03584604        6.00000000      cm-1
   746     1710.51486041    10945.92273495       20.00000000      cm-1
   747     1730.29963153    10965.70750608        2.00000000      cm-1
   748     1732.75140871    10968.15928325        6.00000000      cm-1
   749     1737.43377147    10972.84164601        2.00000000      cm-1
   750     1750.46388826    10985.87176281        2.00000000      cm-1
   751     1756.74338038    10992.15125492        6.00000000      cm-1
   752     1767.33529497    11002.74316951       -0.00000000      cm-1
   753     1773.49143681    11008.89931135       -0.00000000      cm-1
   754     1790.26187781    11025.66975235        6.00000000      cm-1
   755     1797.00337840    11032.41125294       20.00000000      cm-1
   756     1797.29489239    11032.70276693        6.00000000      cm-1
   757     1804.79238664    11040.20026118       12.00000000      cm-1
   758     1837.36171184    11072.76958638       12.00000000      cm-1
   759     1853.94324752    11089.35112207        6.00000000      cm-1
   760     1858.91435919    11094.32223374        2.00000000      cm-1
   761     1862.83287590    11098.24075044        6.00000000      cm-1
   762     1870.24156936    11105.64944390        2.00000000      cm-1
   763     1891.65948166    11127.06735621        6.00000000      cm-1
   764     1896.95742222    11132.36529676       12.00000000      cm-1
   765     1897.82346709    11133.23134163        2.00000000      cm-1
   766     1926.38046561    11161.78834016        6.00000000      cm-1
   767     1936.10037522    11171.50824976        0.00000000      cm-1
   768     1945.45647780    11180.86435234        0.00000000      cm-1
   769     1959.09007125    11194.49794580       12.00000000      cm-1
   770     1964.44247487    11199.85034941        6.00000000      cm-1
   771     1964.69293392    11200.10080846       20.00000000      cm-1
   772     1971.78300723    11207.19088177        6.00000000      cm-1
   773     1992.42060192    11227.82847647        2.00000000      cm-1
   774     1994.78174360    11230.18961814       12.00000000      cm-1
   775     2013.25114198    11248.65901652       12.00000000      cm-1
   776     2029.35601225    11264.76388679        2.00000000      cm-1
   777     2035.47931681    11270.88719136        2.00000000      cm-1
   778     2042.79689744    11278.20477199       12.00000000      cm-1
   779     2047.85511712    11283.26299166       12.00000000      cm-1
   780     2063.22470997    11298.63258451       12.00000000      cm-1
   781     2077.23545173    11312.64332628       12.00000000      cm-1
   782     2091.00794470    11326.41581924        2.00000000      cm-1
   783     2091.98317327    11327.39104781       -0.00000000      cm-1
   784     2094.30242987    11329.71030441        0.00000000      cm-1
   785     2099.78275550    11335.19063004        6.00000000      cm-1
   786     2111.35415295    11346.76202749        6.00000000      cm-1
   787     2116.77249866    11352.18037320        2.00000000      cm-1
   788     2129.32148568    11364.72936022        2.00000000      cm-1
   789     2129.40024235    11364.80811689       12.00000000      cm-1
   790     2153.76456513    11389.17243967        6.00000000      cm-1
   791     2195.48379894    11430.89167348        6.00000000      cm-1
   792     2207.23909765    11442.64697219       20.00000000      cm-1
   793     2208.01227743    11443.42015198       12.00000000      cm-1
   794     2208.97443285    11444.38230739        6.00000000      cm-1
   795     2220.11763557    11455.52551011       12.00000000      cm-1
   796     2228.13226152    11463.54013606        6.00000000      cm-1
   797     2238.20520740    11473.61308195        6.00000000      cm-1
   798     2242.12991128    11477.53778582        6.00000000      cm-1
   799     2250.48793658    11485.89581113       12.00000000      cm-1
   800     2258.35178771    11493.75966226        2.00000000      cm-1
   801     2265.27066619    11500.67854073        2.00000000      cm-1
   802     2275.46922703    11510.87710157        2.00000000      cm-1
   803     2278.42640448    11513.83427902       20.00000000      cm-1
   804     2284.80875632    11520.21663086       20.00000000      cm-1
   805     2295.90690102    11531.31477557       20.00000000      cm-1
   806     2309.03996358    11544.44783813        2.00000000      cm-1
   807     2312.56753431    11547.97540885       12.00000000      cm-1
   808     2334.48232780    11569.89020235        6.00000000      cm-1
   809     2339.49309455    11574.90096909        6.00000000      cm-1
   810     2351.82770079    11587.23557533       12.00000000      cm-1
   811     2361.16487194    11596.57274649        6.00000000      cm-1
   812     2372.24191786    11607.64979240       12.00000000      cm-1
   813     2377.80601016    11613.21388470        6.00000000      cm-1
   814     2378.06240376    11613.47027830        2.00000000      cm-1
   815     2381.10656027    11616.51443481        6.00000000      cm-1
   816     2383.33121788    11618.73909242        2.00000000      cm-1
   817     2412.06465208    11647.47252662        2.00000000      cm-1
   818     2427.74636936    11663.15424390       20.00000000      cm-1
   819     2448.99896472    11684.40683926        0.00000000      cm-1
   820     2453.89888955    11689.30676410       30.00000000      cm-1
   821     2477.61953368    11713.02740822       12.00000000      cm-1
   822     2478.63102624    11714.03890079        6.00000000      cm-1
   823     2497.94059161    11733.34846616       12.00000000      cm-1
   824     2501.76455640    11737.17243094        2.00000000      cm-1
   825     2508.66504092    11744.07291547        6.00000000      cm-1
   826     2521.23873168    11756.64660623        6.00000000      cm-1
   827     2536.99729516    11772.40516970       12.00000000      cm-1
   828     2560.41126991    11795.81914445        2.00000000      cm-1
   829     2610.50716596    11845.91504050       20.00000000      cm-1
   830     2635.54982198    11870.95769652       12.00000000      cm-1
   831     2638.26466465    11873.67253919       12.00000000      cm-1
   832     2681.14545944    11916.55333398        6.00000000      cm-1
   833     2687.04256616    11922.45044071        0.00000000      cm-1
   834     2694.36054201    11929.76841655       30.00000000      cm-1
   835     2703.24877970    11938.65665424       20.00000000      cm-1
   836     2706.91875038    11942.32662492       12.00000000      cm-1
   837     2711.37598855    11946.78386310       20.00000000      cm-1
   838     2717.57710790    11952.98498244        2.00000000      cm-1
   839     2736.29089196    11971.69876650       20.00000000      cm-1
   840     2739.62645839    11975.03433293        6.00000000      cm-1
   841     2759.05893686    11994.46681140        6.00000000      cm-1
   842     2775.36701912    12010.77489366        6.00000000      cm-1
   843     2784.05909831    12019.46697285        2.00000000      cm-1
   844     2793.76823084    12029.17610538        6.00000000      cm-1
   845     2803.93870610    12039.34658065        2.00000000      cm-1
   846     2824.61275193    12060.02062647        2.00000000      cm-1
   847     2842.25675712    12077.66463166        2.00000000      cm-1
   848     2865.58649934    12100.99437389       12.00000000      cm-1
   849     2867.40034774    12102.80822228       -0.00000000      cm-1
   850     2879.70441190    12115.11228644       20.00000000      cm-1
   851     2905.93833292    12141.34620746        6.00000000      cm-1
   852     2916.61087526    12152.01874980        6.00000000      cm-1
   853     2937.14626475    12172.55413929       20.00000000      cm-1
   854     2939.63944910    12175.04732365        6.00000000      cm-1
   855     2943.65944262    12179.06731716        2.00000000      cm-1
   856     2953.04270029    12188.45057484       12.00000000      cm-1
   857     2955.15003615    12190.55791069        2.00000000      cm-1
   858     2958.77106361    12194.17893815       12.00000000      cm-1
   859     2967.53302018    12202.94089472        6.00000000      cm-1
   860     2971.65004426    12207.05791881       -0.00000000      cm-1
   861     2976.50015648    12211.90803103       12.00000000      cm-1
   862     3005.23323547    12240.64111001       12.00000000      cm-1
   863     3050.68645505    12286.09432960       -0.00000000      cm-1
   864     3065.53561624    12300.94349078       12.00000000      cm-1
   865     3068.57250928    12303.98038382       12.00000000      cm-1
   866     3083.44188163    12318.84975618       12.00000000      cm-1
   867     3087.57191339    12322.97978793       20.00000000      cm-1
   868     3145.02412272    12380.43199726       12.00000000      cm-1
   869     3171.30811730    12406.71599184        6.00000000      cm-1
   870     3172.05550164    12407.46337618        2.00000000      cm-1
   871     3186.46596038    12421.87383493        6.00000000      cm-1
   872     3191.76916291    12427.17703745       12.00000000      cm-1
   873     3229.80100813    12465.20888267        6.00000000      cm-1
   874     3249.16613328    12484.57400783       12.00000000      cm-1
   875     3254.28265551    12489.69053005       30.00000000      cm-1
   876     3262.27556010    12497.68343464       20.00000000      cm-1
   877     3292.47954047    12527.88741501       20.00000000      cm-1
   878     3303.98947915    12539.39735369        2.00000000      cm-1
   879     3325.99350371    12561.40137826       20.00000000      cm-1
   880     3336.97641891    12572.38429345        2.00000000      cm-1
   881     3343.67583866    12579.08371320        6.00000000      cm-1
   882     3346.28520137    12581.69307591       12.00000000      cm-1
   883     3396.90360465    12632.31147920       12.00000000      cm-1
   884     3439.33022613    12674.73810068       20.00000000      cm-1
   885     3482.91868559    12718.32656013        6.00000000      cm-1
   886     3483.22714206    12718.63501661       30.00000000      cm-1
   887     3521.76403229    12757.17190683        6.00000000      cm-1
   888     3541.38746482    12776.79533936        6.00000000      cm-1
   889     3555.19790525    12790.60577979       12.00000000      cm-1
   890     3641.87797455    12877.28584909       30.00000000      cm-1
   891     3655.93632346    12891.34419801        6.00000000      cm-1
   892     3682.40571548    12917.81359002        6.00000000      cm-1
   893     3744.08297301    12979.49084755       20.00000000      cm-1
   894     3745.89595391    12981.30382846        2.00000000      cm-1
   895     3756.30413707    12991.71201161       12.00000000      cm-1
   896     3756.44559746    12991.85347200       20.00000000      cm-1
   897     3792.51206763    13027.91994218       12.00000000      cm-1
   898     3799.34550347    13034.75337801        2.00000000      cm-1
   899     3828.16879887    13063.57667341       30.00000000      cm-1
   900     3844.11590019    13079.52377473       20.00000000      cm-1
   901     3888.08875621    13123.49663076       20.00000000      cm-1
   902     3914.26931514    13149.67718968       20.00000000      cm-1
   903     3916.31651486    13151.72438940       12.00000000      cm-1
   904     3932.31083482    13167.71870937        0.00000000      cm-1
   905     3946.49708553    13181.90496008        6.00000000      cm-1
   906     4015.73648809    13251.14436263       12.00000000      cm-1
   907     4057.08234251    13292.49021705        2.00000000      cm-1
   908     4076.03029633    13311.43817087       12.00000000      cm-1
   909     4113.79783915    13349.20571369        6.00000000      cm-1
   910     4190.21575434    13425.62362889       12.00000000      cm-1
   911     4269.35096137    13504.75883591       20.00000000      cm-1
   912     4271.98900093    13507.39687547        6.00000000      cm-1
   913     4376.49382326    13611.90169780       20.00000000      cm-1
   914     4396.07815119    13631.48602573       12.00000000      cm-1
   915     4453.17265755    13688.58053209       30.00000000      cm-1
   916     4454.40900704    13689.81688158       20.00000000      cm-1
   917     4605.01775553    13840.42563008       12.00000000      cm-1
   918     4627.84225769    13863.25013224       30.00000000      cm-1
   919     4721.49662041    13956.90449495       20.00000000      cm-1
   920     4984.69187838    14220.09975292       20.00000000      cm-1
   921     5116.46637724    14351.87425178       30.00000000      cm-1
   922     5381.40575328    14616.81362782       30.00000000      cm-1
   923     5792.04389299    15027.45176753       42.00000000      cm-1
 Analysis of SCF Wavefunction

 --------------------------------------------------------------

                    Orbital Energies (a.u.)
 --------------------------------------------------------------

 Alpha MOs
 -- Occupied --
 -0.914  -0.914  -0.498  -0.498  -0.499  -0.498  -0.498  -0.499
 -0.499  -0.499  -0.499  -0.500  -0.500  -0.499
 -- Virtual --
  0.940   0.934   0.985   1.045   1.146   1.049   1.042   0.966
  1.045   1.061   1.259   1.084   1.057   0.803

 Beta MOs
 -- Occupied --
 -0.914  -0.914
 -- Virtual --
  0.139   0.139   0.142   0.139   0.139   0.142   0.142   0.142
  0.142   0.144   0.144   0.142   1.103   1.091   1.141   1.191
  1.241   1.185   1.187   1.125   1.199   1.188   1.312   1.207
  1.205   0.991
 --------------------------------------------------------------

          Ground-State Mulliken Net Atomic Charges

     Atom                 Charge (a.u.)
  ----------------------------------------
      1 H                     0.000003
      2 H                    -0.000021
      3 H                     0.000003
      4 H                     0.000003
      5 H                    -0.000021
      6 H                     0.000003
      7 H                     0.000009
      8 H                    -0.000005
      9 H                     0.000009
     10 H                     0.000009
     11 H                    -0.000005
     12 H                     0.000009
     13 He                    0.000000
     14 He                    0.000000
  ----------------------------------------
  Sum of atomic charges =    -0.000000

 -----------------------------------------------------------------
                    Cartesian Multipole Moments
 -----------------------------------------------------------------
    Charge (ESU x 10^10)
                -0.0000
    Dipole Moment (Debye)
         X      -0.0000      Y       0.0000      Z       0.0000
       Tot       0.0000
    Quadrupole Moments (Debye-Ang)
        XX     -18.3666     XY      -0.0998     YY     -17.5044
        XZ      -0.0517     YZ       0.4267     ZZ     -18.3462
    Octopole Moments (Debye-Ang^2)
       XXX     114.0869    XXY     -34.5322    XYY      35.8399
       YYY    -102.7501    XXZ      28.3884    XYZ      -0.7393
       YYZ      26.2957    XZZ      38.2944    YZZ     -37.5495
       ZZZ      84.2560
    Hexadecapole Moments (Debye-Ang^3)
      XXXX   -2197.5734   XXXY      82.1654   XXYY    -602.7348
      XYYY      78.1789   YYYY   -1448.8053   XXXZ    -363.7391
      XXYZ    -117.8049   XYYZ    -114.5220   YYYZ    -374.5365
      XXZZ    -838.6795   XYZZ      32.4836   YYZZ    -704.2505
      XZZZ    -362.7470   YZZZ    -349.4943   ZZZZ   -2791.0020
 -----------------------------------------------------------------
 JobOver = TRUE
Archival summary:
1\1\sinatra\SP\ROProcedureUnspecified\6-31G*\e212()\nmayhall\MonApr1020:59:332017MonApr1020:59:332017\0\\#,ROProcedureUnspecified,6-31G*,\\0,13\H\H,1,2.51089\H,2,2.54341,1,89.8475\H,3,2.49071,2,88.456,1,179.985,0\H,4,2.48422,3,93.1864,2,0.0382142,0\H,5,2.48419,4,176.408,3,-0.0563736,0\H,6,2.49072,5,93.1864,4,-0.0195791,0\H,3,2.49726,2,90.1535,1,-0.0310098,0\H,8,2.49072,3,178.609,2,-0.399943,0\H,9,2.4842,8,93.1864,3,0.451033,0\H,10,2.48422,9,176.408,8,0.0026112,0\H,11,2.49071,10,93.1861,9,-0.0429973,0\He,9,15.4204,8,105.936,3,-106.582,0\He,11,17.034,10,127.907,9,-116.062,0\\HF=-11.6502452\\@

 Total job time:  0.49s(wall), 0.48s(cpu) 
 Mon Apr 10 20:59:33 2017

        *************************************************************
        *                                                           *
        *  Thank you very much for using Q-Chem.  Have a nice day.  *
        *                                                           *
        *************************************************************


*** MISSION COMPLETED -- STARFLEET OUT ***

