                  Welcome to Q-Chem
     A Quantum Leap Into The Future Of Chemistry


 Q-Chem 4.3, Q-Chem, Inc., Pleasanton, CA (2015)

 Y. Shao,  Z. Gan,  E. Epifanovsky,  A. T. B. Gilbert,  M. Wormit,  
 J. Kussmann,  A. W. Lange,  A. Behn,  J. Deng,  X. Feng,  D. Ghosh,  
 M. Goldey,  P. R. Horn,  L. D. Jacobson,  I. Kaliman,  R. Z. Khaliullin,  
 T. Kus,  A. Landau,  J. Liu,  E. I. Proynov,  Y. M. Rhee,  R. M. Richard,  
 M. A. Rohrdanz,  R. P. Steele,  E. J. Sundstrom,  H. L. Woodcock III,  
 P. M. Zimmerman,  D. Zuev,  B. Albrecht,  E. Alguire,  B. Austin,  
 S. A. Baeppler,  G. J. O. Beran,  Y. A. Bernard,  E. Berquist,  
 K. Brandhorst,  K. B. Bravaya,  S. T. Brown,  D. Casanova,  C.-M. Chang,  
 Y. Chen,  S. H. Chien,  K. D. Closser,  D. L. Crittenden,  M. Diedenhofen,  
 R. A. DiStasio Jr.,  H. Do,  A. D. Dutoi,  R. G. Edgar,  P.-T. Fang,  
 S. Fatehi,  Q. Feng,  L. Fusti-Molnar,  A. Ghysels,  
 A. Golubeva-Zadorozhnaya,  J. Gomes,  A. Gunina,  M. W. D. Hanson-Heine,  
 P. H. P. Harbach,  A. W. Hauser,  E. G. Hohenstein,  Z. C. Holden,  K. Hui,  
 T.-C. Jagau,  H. Ji,  B. Kaduk,  K. Khistyaev,  Jaehoon Kim,  Jihan Kim,  
 R. A. King,  P. Klunzinger,  D. Kosenkov,  T. Kowalczyk,  C. M. Krauter,  
 K. U. Lao,  A. Laurent,  K. V. Lawler,  S. Lehtola,  S. V. Levchenko,  
 C. Y. Lin,  Y.-S. Lin,  F. Liu,  E. Livshits,  R. C. Lochan,  A. Luenser,  
 P. Manohar,  S. F. Manzer,  S.-P. Mao,  N. Mardirossian,  A. V. Marenich,  
 L. A. Martinez-Martinez,  S. A. Maurer,  N. J. Mayhall,  K. Nanda,  
 C. M. Oana,  R. Olivares-Amaya,  D. P. O'Neill,  J. A. Parkhill,  
 T. M. Perrine,  R. Peverati,  P. A. Pieniazek,  F. Plasser,  A. Prociuk,  
 D. R. Rehn,  E. Rosta,  N. J. Russ,  N. Sergueev,  S. M. Sharada,  
 S. Sharma,  D. W. Small,  A. Sodt,  T. Stauch,  T. Stein,  D. Stuck,  
 Y.-C. Su,  A. J. W. Thom,  T. Tsuchimochi,  L. Vogt,  O. Vydrov,  T. Wang,  
 M. A. Watson,  J. Wenzel,  A. White,  C. F. Williams,  V. Vanovschi,  
 S. Yeganeh,  S. R. Yost,  Z.-Q. You,  I. Y. Zhang,  X. Zhang,  Y. Zhao,  
 B. R. Brooks,  G. K. L. Chan,  D. M. Chipman,  C. J. Cramer,  
 W. A. Goddard III,  M. S. Gordon,  W. J. Hehre,  A. Klamt,  
 H. F. Schaefer III,  M. W. Schmidt,  C. D. Sherrill,  D. G. Truhlar,  
 A. Warshel,  X. Xu,  A. Aspuru-Guzik,  R. Baer,  A. T. Bell,  N. A. Besley,  
 J.-D. Chai,  A. Dreuw,  B. D. Dunietz,  T. R. Furlani,  S. R. Gwaltney,  
 C.-P. Hsu,  Y. Jung,  J. Kong,  D. S. Lambrecht,  W. Liang,  C. Ochsenfeld,  
 V. A. Rassolov,  L. V. Slipchenko,  J. E. Subotnik,  T. Van Voorhis,  
 J. M. Herbert,  A. I. Krylov,  P. M. W. Gill,  M. Head-Gordon

 Contributors to earlier versions of Q-Chem not listed above: 
 R. D. Adamson,  J. Baker,  E. F. C. Byrd,  A. K. Chakraborty,  C.-L. Cheng,  
 H. Dachsel,  R. J. Doerksen,  G. Hawkins,  A. Heyden,  S. Hirata,  
 G. Kedziora,  F. J. Keil,  C. Kelley,  P. P. Korambath,  W. Kurlancheek,  
 A. M. Lee,  M. S. Lee,  D. Liotard,  I. Lotan,  P. E. Maslen,  N. Nair,  
 D. Neuhauser,  R. Olson,  B. Peters,  J. Ritchie,  N. E. Schultz,  
 N. Shenvi,  A. C. Simmonett,  K. S. Thanthiriwatte,  Q. Wu,  W. Zhang

 Please cite Q-Chem as follows:
 Y. Shao et al., Mol. Phys. 113, 184-215 (2015)
 DOI: 10.1080/00268976.2014.952696

 Q-Chem 4.3.0 for Intel X86 EM64T Linux

 Parts of Q-Chem use Armadillo 5.200.1 (Boston Tea Smuggler).
 http://arma.sourceforge.net/

 Q-Chem begins on Sat Mar 25 21:31:12 2017  


Host: 0

     Scratch files written to /home/nmayhall/scratch_qchem/h32//
 Dec1416 |home|nmayhall|qcSoftware|qchem|qchem.svn-casman|libmdc|qstr_RNUM -1
 Using version located at /home/nmayhall/qcSoftware/qchem/qchem.svn-casman/bin/qchem


Total Memory Limit in MB = 2000
Mega-Array Size in MB = 62

Checking the input file for inconsistencies... 	...done.

 Q-Chem warning in module /home/nmayhall/qcSoftware/qchem/qchem.svn-casman/forms1/BasisType.C, line 1452:

 You are not using the predefined 5D/6D in this basis set.

Finally everything over in PARseQInput

--------------------------------------------------------------
User input:
--------------------------------------------------------------
$rem
	exchange 		hf
	unrestricted		1
	basis			6-31g*	
	aux_basis		rimp2-vdz
	scf_guess		core	
	scf_convergence		8
	purecart		1111

	symmetry		0
	sym_ignore		1

	!correlation		sf-cas
	!cas_n_spin_flip		1
	!cas_local		1
	gui			2
$end

$development
	1sf_heis_projection	1
$end

$molecule
0 33 
H         -1.26446        1.31504       -0.30551
H         -1.99124        2.95712       -0.32028
H         -2.24418        1.87522        1.09074
H         -3.04156        1.50799       -0.47591
H          2.73609        2.05546        0.10043
H          1.33434        1.96998       -1.01949
H          1.34245        3.16814        0.31875
H          1.16079        1.41865        0.68088
H          2.95589       -1.12145       -0.26091
H          1.81946       -2.50147       -0.44060
H          1.27748       -0.83518       -0.83398
H          1.57686       -1.30309        0.87412
H         -1.06890       -1.55299        0.53446
H         -2.27907       -2.70974       -0.11559
H         -1.92276       -1.18988       -1.00345
H         -2.81473       -1.13187        0.55475
H         -1.27226        1.33048        3.75293
H         -2.02721        2.95918        3.71934
H         -2.21777        1.91013        5.16523
H         -3.05718        1.48970        3.63407
H          2.73953        2.07057        4.11177
H          1.21503        1.91577        3.17647
H          1.41423        3.26057        4.34839
H          1.22443        1.57526        4.94010
H          2.92711       -1.08336        3.73542
H          1.75376       -2.43561        3.58684
H          1.20147       -0.74021        3.37391
H          1.67741       -1.33119        5.00156
H         -1.04496       -1.63617        4.55173
H         -2.29754       -2.68992        3.81267
H         -1.90797       -1.10229        3.07009
H         -2.77632       -1.16939        4.64101
He	10	10	10	
He	-10	10	10	
$end


--------------------------------------------------------------
 ----------------------------------------------------------------
             Standard Nuclear Orientation (Angstroms)
    I     Atom           X                Y                Z
 ----------------------------------------------------------------
    1      H      -1.2644600000     1.3150400000    -0.3055100000
    2      H      -1.9912400000     2.9571200000    -0.3202800000
    3      H      -2.2441800000     1.8752200000     1.0907400000
    4      H      -3.0415600000     1.5079900000    -0.4759100000
    5      H       2.7360900000     2.0554600000     0.1004300000
    6      H       1.3343400000     1.9699800000    -1.0194900000
    7      H       1.3424500000     3.1681400000     0.3187500000
    8      H       1.1607900000     1.4186500000     0.6808800000
    9      H       2.9558900000    -1.1214500000    -0.2609100000
   10      H       1.8194600000    -2.5014700000    -0.4406000000
   11      H       1.2774800000    -0.8351800000    -0.8339800000
   12      H       1.5768600000    -1.3030900000     0.8741200000
   13      H      -1.0689000000    -1.5529900000     0.5344600000
   14      H      -2.2790700000    -2.7097400000    -0.1155900000
   15      H      -1.9227600000    -1.1898800000    -1.0034500000
   16      H      -2.8147300000    -1.1318700000     0.5547500000
   17      H      -1.2722600000     1.3304800000     3.7529300000
   18      H      -2.0272100000     2.9591800000     3.7193400000
   19      H      -2.2177700000     1.9101300000     5.1652300000
   20      H      -3.0571800000     1.4897000000     3.6340700000
   21      H       2.7395300000     2.0705700000     4.1117700000
   22      H       1.2150300000     1.9157700000     3.1764700000
   23      H       1.4142300000     3.2605700000     4.3483900000
   24      H       1.2244300000     1.5752600000     4.9401000000
   25      H       2.9271100000    -1.0833600000     3.7354200000
   26      H       1.7537600000    -2.4356100000     3.5868400000
   27      H       1.2014700000    -0.7402100000     3.3739100000
   28      H       1.6774100000    -1.3311900000     5.0015600000
   29      H      -1.0449600000    -1.6361700000     4.5517300000
   30      H      -2.2975400000    -2.6899200000     3.8126700000
   31      H      -1.9079700000    -1.1022900000     3.0700900000
   32      H      -2.7763200000    -1.1693900000     4.6410100000
   33      He     10.0000000000    10.0000000000    10.0000000000
   34      He    -10.0000000000    10.0000000000    10.0000000000
 ----------------------------------------------------------------
 Nuclear Repulsion Energy =    68.5307943207 hartrees
 There are       34 alpha and        2 beta electrons
 Requested basis set is 6-31G(d)
 There are 68 shells and 68 basis functions

Total QAlloc Memory Limit   2000 MB
Mega-Array Size        61 MB
MEM_STATIC part        62 MB

finished with qalloc call

 Q-Chem warning in module /home/nmayhall/qcSoftware/qchem/qchem.svn-casman/forms1/BasisType.C, line 1375:

 SAD: How to set up polarization functions for non-Pople basis?

 Requested basis set is rimp2-VDZ
 There are 202 shells and 466 basis functions
 Job number = 2, Threshold = 1.00E-11
Integral type ranges set in mkLRange.C for JobNum: 2  <1-7|1-7>
Symmetry turned off temporarily
 Using the largest function pair in Schwarz integrals
Total number of integrals generated =            3604
Symmetry turned back on
 A cutoff of  1.0D-11 yielded   1738 shell pairs
 There are      1738 function pairs
 Job number = 11, Threshold = 1.00E-11
Integral type ranges set in mkLRange.C for JobNum: 11  <1-1|8-8>

 -------------------------------------------------------
 OpenMP Integral Computing Module                       
 Release: version 1.0, May 2013, Q-Chem Inc. Pittsburgh 
 -------------------------------------------------------
 Integral Job Info:
 Integral job number is                      11
 Integral operator is                         1
 short-range coefficients                     0
 long-range coefficients              100000000
 Omega coefficients                           0
 if combine SR and LR in K                    0
 Integral screening is                        0
 Integral computing path is                   2
 max size of driver memory is            800000
 size of driver memory is                 11780
 size of scratch memory is               800000
 max col of scratch BK array                289
 max len of scratch array in speh3            1
 max len of scratch index in speh4            2
 max int batch size is                      520
 min int batch size is                       52
 fixed nKL is                               520
 max L of basis functions is                  0
 order of int derivative is                   0
 number of shells is                         68
 number of basis is                          68
 number of cartesian basis is                68
 number of contracted shell pairs          1738
 number of primitive shell pairs           4154
 maxK2 (contraction) of shell pair            9
 max number of K2 of shell pair               1
 max number of CS2 of shell pair            850
 max number of PS2 of shell pair           2550
 mem total for path MDJ                   15216
 -------------------------------------------------------
 Smallest overlap matrix eigenvalue = 1.54E-01
 Multipole matrices computed through 2nd order

  Scale SEOQF with 1.000000e-02/1.000000e-02/1.000000e-02

 Standard Electronic Orientation quadrupole field applied
 Nucleus-field energy     =    -0.0000000016 hartrees
GuessMan:  IGuess = 1
 Guess MOs from core Hamiltonian diagonalization
scfman initvdwdat 
 An unrestricted Hartree-Fock SCF calculation will be
 performed using Pulay DIIS extrapolation
 SCF converges when DIIS error is below 1.0E-08
Finding J and K together
 Job number = 22, Threshold = 1.00E-11
Integral type ranges set in mkLRange.C for JobNum: 22  <1-1|1-1>
Storing 120.31% of integrals
Total number of integrals generated =         1158535
 MakeJK  time:  CPU       0.25 s  wall       0.25 s
Fock build time:  0.25 s (CPU) 0.25 s (wall)
DIIS Errors:  Max 3.63E-01 RMS 2.29E-02

Current DIIS subspace size = 1
REM_GRID_RESTART_DIIS = 0

 ---------------------------------------
  Cycle       Energy         DIIS Error
 ---------------------------------------
    1     -11.9127966611      2.29E-02  00000
Finding J and K together
 Job number = 22, Threshold = 1.00E-11
Integral type ranges set in mkLRange.C for JobNum: 22  <1-1|1-1>
Storing 120.31% of integrals
Reusing in-core integrals buffer for job 22
 MakeJK  time:  CPU       0.05 s  wall       0.06 s
Fock build time:  0.05 s (CPU) 0.06 s (wall)
DIIS Errors:  Max 4.99E-01 RMS 1.52E-02

Current DIIS subspace size = 2
REM_GRID_RESTART_DIIS = 0

    2     -16.9488167230      1.52E-02  00000
Finding J and K together
 Job number = 22, Threshold = 1.00E-11
Integral type ranges set in mkLRange.C for JobNum: 22  <1-1|1-1>
Storing 120.31% of integrals
Reusing in-core integrals buffer for job 22
 MakeJK  time:  CPU       0.06 s  wall       0.06 s
Fock build time:  0.06 s (CPU) 0.06 s (wall)
DIIS Errors:  Max 5.06E-02 RMS 2.35E-03

Current DIIS subspace size = 3
REM_GRID_RESTART_DIIS = 0

    3     -21.0188365411      2.35E-03  00000
Finding J and K together
 Job number = 22, Threshold = 1.00E-11
Integral type ranges set in mkLRange.C for JobNum: 22  <1-1|1-1>
Storing 120.31% of integrals
Reusing in-core integrals buffer for job 22
 MakeJK  time:  CPU       0.06 s  wall       0.06 s
Fock build time:  0.06 s (CPU) 0.06 s (wall)
DIIS Errors:  Max 1.60E-02 RMS 6.57E-04

Current DIIS subspace size = 4
REM_GRID_RESTART_DIIS = 0

    4     -21.0277166367      6.57E-04  00000
Finding J and K together
 Job number = 22, Threshold = 1.00E-11
Integral type ranges set in mkLRange.C for JobNum: 22  <1-1|1-1>
Storing 120.31% of integrals
Reusing in-core integrals buffer for job 22
 MakeJK  time:  CPU       0.05 s  wall       0.06 s
Fock build time:  0.05 s (CPU) 0.06 s (wall)
DIIS Errors:  Max 6.49E-03 RMS 2.01E-04

Current DIIS subspace size = 5
REM_GRID_RESTART_DIIS = 0

    5     -21.0284894966      2.01E-04  00000
Finding J and K together
 Job number = 22, Threshold = 1.00E-11
Integral type ranges set in mkLRange.C for JobNum: 22  <1-1|1-1>
Storing 120.31% of integrals
Reusing in-core integrals buffer for job 22
 MakeJK  time:  CPU       0.06 s  wall       0.06 s
Fock build time:  0.06 s (CPU) 0.06 s (wall)
DIIS Errors:  Max 3.11E-03 RMS 9.43E-05

Current DIIS subspace size = 6
REM_GRID_RESTART_DIIS = 0

    6     -21.0285231813      9.43E-05  00000
Finding J and K together
 Job number = 22, Threshold = 1.00E-11
Integral type ranges set in mkLRange.C for JobNum: 22  <1-1|1-1>
Storing 120.31% of integrals
Reusing in-core integrals buffer for job 22
 MakeJK  time:  CPU       0.06 s  wall       0.06 s
Fock build time:  0.06 s (CPU) 0.06 s (wall)
DIIS Errors:  Max 2.58E-04 RMS 7.99E-06

Current DIIS subspace size = 7
REM_GRID_RESTART_DIIS = 0

    7     -21.0285286184      7.99E-06  00000
Finding J and K together
 Job number = 22, Threshold = 1.00E-11
Integral type ranges set in mkLRange.C for JobNum: 22  <1-1|1-1>
Storing 120.31% of integrals
Reusing in-core integrals buffer for job 22
 MakeJK  time:  CPU       0.06 s  wall       0.06 s
Fock build time:  0.06 s (CPU) 0.06 s (wall)
DIIS Errors:  Max 1.37E-05 RMS 4.46E-07

Current DIIS subspace size = 8
REM_GRID_RESTART_DIIS = 0

    8     -21.0285288308      4.46E-07  00000
Finding J and K together
 Job number = 22, Threshold = 1.00E-11
Integral type ranges set in mkLRange.C for JobNum: 22  <1-1|1-1>
Storing 120.31% of integrals
Reusing in-core integrals buffer for job 22
 MakeJK  time:  CPU       0.06 s  wall       0.06 s
Fock build time:  0.06 s (CPU) 0.06 s (wall)
DIIS Errors:  Max 6.40E-07 RMS 2.50E-08

Current DIIS subspace size = 9
REM_GRID_RESTART_DIIS = 0

    9     -21.0285288772      2.50E-08  00000
Finding J and K together
 Job number = 22, Threshold = 1.00E-11
Integral type ranges set in mkLRange.C for JobNum: 22  <1-1|1-1>
Storing 120.31% of integrals
Reusing in-core integrals buffer for job 22
 MakeJK  time:  CPU       0.06 s  wall       0.06 s
Fock build time:  0.06 s (CPU) 0.06 s (wall)
DIIS Errors:  Max 6.56E-08 RMS 2.04E-09

Current DIIS subspace size = 10
REM_GRID_RESTART_DIIS = 0

   10     -21.0285288816      2.04E-09  00000 Convergence criterion met
 ---------------------------------------
 <S^2> = 272.0000
 SCF time:  CPU 0.78 s  wall 0.78 s
 SCF   energy in the final basis set = -21.0285288816
 Total energy in the final basis set = -21.0285288816
Symmetry turned off temporarily
 Analysis of SCF Wavefunction

 --------------------------------------------------------------

                    Orbital Energies (a.u.)
 --------------------------------------------------------------

 Alpha MOs
 -- Occupied --
 -0.914  -0.914  -0.736  -0.722  -0.719  -0.713  -0.706  -0.701
 -0.699  -0.687  -0.500  -0.489  -0.482  -0.478  -0.473  -0.470
 -0.467  -0.464  -0.463  -0.459  -0.455  -0.454  -0.454  -0.452
 -0.448  -0.445  -0.442  -0.441  -0.438  -0.436  -0.431  -0.429
 -0.425  -0.415
 -- Virtual --
  0.760   0.788   0.805   0.818   0.833   0.849   0.855   0.864
  0.879   0.888   0.911   0.919   0.928   0.931   0.947   0.959
  0.976   0.982   0.991   1.007   1.012   1.018   1.031   1.043
  1.079   1.100   1.103   1.151   1.196   1.245   1.274   1.390
  1.400   1.400

 Beta MOs
 -- Occupied --
 -0.914  -0.914
 -- Virtual --
 -0.079  -0.060  -0.055  -0.048  -0.038  -0.031  -0.028  -0.012
  0.102   0.113   0.124   0.130   0.135   0.141   0.145   0.150
  0.154   0.158   0.167   0.168   0.171   0.173   0.177   0.182
  0.189   0.190   0.197   0.202   0.208   0.212   0.219   0.235
  1.004   1.022   1.036   1.044   1.057   1.069   1.074   1.081
  1.093   1.101   1.120   1.127   1.135   1.136   1.150   1.159
  1.174   1.181   1.189   1.203   1.211   1.218   1.223   1.233
  1.267   1.298   1.302   1.345   1.391   1.400   1.400   1.436
  1.463   1.577
 --------------------------------------------------------------

          Ground-State Mulliken Net Atomic Charges

     Atom                 Charge (a.u.)    Spin (a.u.)
  --------------------------------------------------------
      1 H                     0.000021       0.999979
      2 H                     0.000082       0.999918
      3 H                     0.000056       0.999944
      4 H                     0.000008       0.999992
      5 H                     0.000033       0.999967
      6 H                    -0.000068       1.000068
      7 H                     0.000012       0.999988
      8 H                    -0.000111       1.000111
      9 H                     0.000037       0.999963
     10 H                     0.000061       0.999939
     11 H                    -0.000040       1.000040
     12 H                    -0.000004       1.000004
     13 H                    -0.000034       1.000034
     14 H                     0.000134       0.999866
     15 H                    -0.000040       1.000040
     16 H                    -0.000033       1.000033
     17 H                    -0.000059       1.000059
     18 H                    -0.000007       1.000007
     19 H                     0.000044       0.999956
     20 H                    -0.000089       1.000089
     21 H                     0.000038       0.999962
     22 H                     0.000005       0.999995
     23 H                     0.000081       0.999919
     24 H                    -0.000059       1.000059
     25 H                    -0.000001       1.000001
     26 H                    -0.000036       1.000036
     27 H                    -0.000116       1.000116
     28 H                    -0.000060       1.000060
     29 H                     0.000054       0.999946
     30 H                     0.000088       0.999912
     31 H                    -0.000047       1.000047
     32 H                     0.000048       0.999952
     33 He                    0.000000       0.000000
     34 He                    0.000000       0.000000
  --------------------------------------------------------
  Sum of atomic charges =    -0.000000
  Sum of spin   charges =    32.000000

 -----------------------------------------------------------------
                    Cartesian Multipole Moments
 -----------------------------------------------------------------
    Charge (ESU x 10^10)
                 0.0000
    Dipole Moment (Debye)
         X      -0.0039      Y      -0.0011      Z      -0.0022
       Tot       0.0046
    Quadrupole Moments (Debye-Ang)
        XX     -49.1407     XY      -0.0900     YY     -49.2805
        XZ       0.0085     YZ      -0.1034     ZZ     -49.2224
    Octopole Moments (Debye-Ang^2)
       XXX      17.6685    XXY     -32.6059    XYY       8.7719
       YYY     -98.7355    XXZ    -114.8238    XYZ      -0.1011
       YYZ    -113.8828    XZZ       9.4070    YZZ     -33.8540
       ZZZ    -346.8909
    Hexadecapole Moments (Debye-Ang^3)
      XXXX   -2477.8362   XXXY     -13.1329   XXYY    -786.9872
      XYYY      -7.2787   YYYY   -2374.6244   XXXZ      45.5354
      XXYZ    -238.4416   XYYZ      16.5129   YYYZ    -724.0420
      XXZZ   -1023.3900   XYZZ       3.0504   YYZZ    -995.4746
      XZZZ      63.5503   YZZZ    -719.3811   ZZZZ   -3728.2460
 -----------------------------------------------------------------
 JobOver = TRUE
Archival summary:
1\1\sinatra\SP\HF\6-31G*\e232(©)\nmayhall\SatMar2521:31:132017SatMar2521:31:132017\0\\#,HF,6-31G*,\\0,33\H\H,1,1.79576\H,1,1.79583,2,60.0218\H,1,1.79618,2,60.0194,3,-70.5199,0\H,1,2.58973,2,82.2224,3,-165.943,0\H,5,1.79527,1,134.397,2,92.3416,0\H,5,1.7954,1,150.634,2,-16.0416,0\H,7,1.79583,5,60.0199,1,-160.951,0\H,1,2.66334,2,161.573,3,-73.0033,0\H,9,1.79487,1,134.374,2,72.5749,0\H,9,1.79523,1,92.963,2,22.9981,0\H,10,1.79622,9,60.025,1,9.20361,0\H,9,2.5452,1,82.981,2,-99.976,0\H,13,1.79556,9,103.238,1,115.117,0\H,13,1.79579,9,90.303,1,174.33,0\H,13,1.79592,9,150.034,1,166.818,0\H,9,2.61944,1,75.8789,2,159.142,0\H,17,1.79548,9,101.096,1,177.581,0\H,17,1.79571,9,126.937,1,-121.718,0\H,17,1.79594,9,155.415,1,140.229,0\H,17,2.60553,9,112.497,1,23.8334,0\H,21,1.79548,17,140.368,9,-109.832,0\H,21,1.79585,17,86.7958,9,-78.3081,0\H,23,1.7954,21,60.0211,17,-86.79,0\H,13,2.62022,9,113.364,1,-92.0266,0\H,25,1.79532,13,101.536,9,-7.78023,0\H,25,1.79565,13,161.353,9,-15.6816,0\H,25,1.79579,13,109.971,9,-69.8406,0\H,21,2.67395,17,109.852,9,89.177,0\H,29,1.79602,21,71.5539,17,-95.9295,0\H,30,1.79587,29,60.0056,21,-120.579,0\H,31,1.79589,30,60.0093,29,-70.5417,0\He,19,12.2223,17,149.32,9,-93.788,0\He,11,12.2581,9,144,1,166.453,0\\HF=-21.0285289\\@

 Total job time:  0.89s(wall), 0.88s(cpu) 
 Sat Mar 25 21:31:13 2017

        *************************************************************
        *                                                           *
        *  Thank you very much for using Q-Chem.  Have a nice day.  *
        *                                                           *
        *************************************************************


*** MISSION COMPLETED -- STARFLEET OUT ***

 
User input: 2 of 2 
 
                  Welcome to Q-Chem
     A Quantum Leap Into The Future Of Chemistry


 Q-Chem 4.3, Q-Chem, Inc., Pleasanton, CA (2015)

 Y. Shao,  Z. Gan,  E. Epifanovsky,  A. T. B. Gilbert,  M. Wormit,  
 J. Kussmann,  A. W. Lange,  A. Behn,  J. Deng,  X. Feng,  D. Ghosh,  
 M. Goldey,  P. R. Horn,  L. D. Jacobson,  I. Kaliman,  R. Z. Khaliullin,  
 T. Kus,  A. Landau,  J. Liu,  E. I. Proynov,  Y. M. Rhee,  R. M. Richard,  
 M. A. Rohrdanz,  R. P. Steele,  E. J. Sundstrom,  H. L. Woodcock III,  
 P. M. Zimmerman,  D. Zuev,  B. Albrecht,  E. Alguire,  B. Austin,  
 S. A. Baeppler,  G. J. O. Beran,  Y. A. Bernard,  E. Berquist,  
 K. Brandhorst,  K. B. Bravaya,  S. T. Brown,  D. Casanova,  C.-M. Chang,  
 Y. Chen,  S. H. Chien,  K. D. Closser,  D. L. Crittenden,  M. Diedenhofen,  
 R. A. DiStasio Jr.,  H. Do,  A. D. Dutoi,  R. G. Edgar,  P.-T. Fang,  
 S. Fatehi,  Q. Feng,  L. Fusti-Molnar,  A. Ghysels,  
 A. Golubeva-Zadorozhnaya,  J. Gomes,  A. Gunina,  M. W. D. Hanson-Heine,  
 P. H. P. Harbach,  A. W. Hauser,  E. G. Hohenstein,  Z. C. Holden,  K. Hui,  
 T.-C. Jagau,  H. Ji,  B. Kaduk,  K. Khistyaev,  Jaehoon Kim,  Jihan Kim,  
 R. A. King,  P. Klunzinger,  D. Kosenkov,  T. Kowalczyk,  C. M. Krauter,  
 K. U. Lao,  A. Laurent,  K. V. Lawler,  S. Lehtola,  S. V. Levchenko,  
 C. Y. Lin,  Y.-S. Lin,  F. Liu,  E. Livshits,  R. C. Lochan,  A. Luenser,  
 P. Manohar,  S. F. Manzer,  S.-P. Mao,  N. Mardirossian,  A. V. Marenich,  
 L. A. Martinez-Martinez,  S. A. Maurer,  N. J. Mayhall,  K. Nanda,  
 C. M. Oana,  R. Olivares-Amaya,  D. P. O'Neill,  J. A. Parkhill,  
 T. M. Perrine,  R. Peverati,  P. A. Pieniazek,  F. Plasser,  A. Prociuk,  
 D. R. Rehn,  E. Rosta,  N. J. Russ,  N. Sergueev,  S. M. Sharada,  
 S. Sharma,  D. W. Small,  A. Sodt,  T. Stauch,  T. Stein,  D. Stuck,  
 Y.-C. Su,  A. J. W. Thom,  T. Tsuchimochi,  L. Vogt,  O. Vydrov,  T. Wang,  
 M. A. Watson,  J. Wenzel,  A. White,  C. F. Williams,  V. Vanovschi,  
 S. Yeganeh,  S. R. Yost,  Z.-Q. You,  I. Y. Zhang,  X. Zhang,  Y. Zhao,  
 B. R. Brooks,  G. K. L. Chan,  D. M. Chipman,  C. J. Cramer,  
 W. A. Goddard III,  M. S. Gordon,  W. J. Hehre,  A. Klamt,  
 H. F. Schaefer III,  M. W. Schmidt,  C. D. Sherrill,  D. G. Truhlar,  
 A. Warshel,  X. Xu,  A. Aspuru-Guzik,  R. Baer,  A. T. Bell,  N. A. Besley,  
 J.-D. Chai,  A. Dreuw,  B. D. Dunietz,  T. R. Furlani,  S. R. Gwaltney,  
 C.-P. Hsu,  Y. Jung,  J. Kong,  D. S. Lambrecht,  W. Liang,  C. Ochsenfeld,  
 V. A. Rassolov,  L. V. Slipchenko,  J. E. Subotnik,  T. Van Voorhis,  
 J. M. Herbert,  A. I. Krylov,  P. M. W. Gill,  M. Head-Gordon

 Contributors to earlier versions of Q-Chem not listed above: 
 R. D. Adamson,  J. Baker,  E. F. C. Byrd,  A. K. Chakraborty,  C.-L. Cheng,  
 H. Dachsel,  R. J. Doerksen,  G. Hawkins,  A. Heyden,  S. Hirata,  
 G. Kedziora,  F. J. Keil,  C. Kelley,  P. P. Korambath,  W. Kurlancheek,  
 A. M. Lee,  M. S. Lee,  D. Liotard,  I. Lotan,  P. E. Maslen,  N. Nair,  
 D. Neuhauser,  R. Olson,  B. Peters,  J. Ritchie,  N. E. Schultz,  
 N. Shenvi,  A. C. Simmonett,  K. S. Thanthiriwatte,  Q. Wu,  W. Zhang

 Please cite Q-Chem as follows:
 Y. Shao et al., Mol. Phys. 113, 184-215 (2015)
 DOI: 10.1080/00268976.2014.952696

 Q-Chem 4.3.0 for Intel X86 EM64T Linux

 Parts of Q-Chem use Armadillo 5.200.1 (Boston Tea Smuggler).
 http://arma.sourceforge.net/

 Q-Chem begins on Sat Mar 25 21:31:13 2017  


Host: 0

     Scratch files written to /home/nmayhall/scratch_qchem/h32//
 Dec1416 |home|nmayhall|qcSoftware|qchem|qchem.svn-casman|libmdc|qstr_RNUM -1
 Using version located at /home/nmayhall/qcSoftware/qchem/qchem.svn-casman/bin/qchem

 Turning off symmetry for CASMAN

Total Memory Limit in MB = 2000
Mega-Array Size in MB = 62

Checking the input file for inconsistencies... 	...done.

 Q-Chem warning in module /home/nmayhall/qcSoftware/qchem/qchem.svn-casman/forms1/BasisType.C, line 1452:

 You are not using the predefined 5D/6D in this basis set.

Finally everything over in PARseQInput

--------------------------------------------------------------
User input:
--------------------------------------------------------------
$rem
	exchange 		hf
	unrestricted		0
	basis			6-31g*	
	aux_basis		rimp2-vdz
	scf_guess		read	
	scf_convergence		8
	purecart		1111

	symmetry		0
	sym_ignore		1

	correlation		sf-cas
	cas_n_spin_flip		1
	cas_local		1
	gui			2
$end

$development
	1sf_heis_projection	1
	scf_corresponding_orbs	1
        heisenberg_n_roots	0
$end

$molecule
read
$end

--------------------------------------------------------------
 ----------------------------------------------------------------
             Standard Nuclear Orientation (Angstroms)
    I     Atom           X                Y                Z
 ----------------------------------------------------------------
    1      H      -1.2644600000     1.3150400000    -0.3055100000
    2      H      -1.9912400000     2.9571200000    -0.3202800000
    3      H      -2.2441800000     1.8752200000     1.0907400000
    4      H      -3.0415600000     1.5079900000    -0.4759100000
    5      H       2.7360900000     2.0554600000     0.1004300000
    6      H       1.3343400000     1.9699800000    -1.0194900000
    7      H       1.3424500000     3.1681400000     0.3187500000
    8      H       1.1607900000     1.4186500000     0.6808800000
    9      H       2.9558900000    -1.1214500000    -0.2609100000
   10      H       1.8194600000    -2.5014700000    -0.4406000000
   11      H       1.2774800000    -0.8351800000    -0.8339800000
   12      H       1.5768600000    -1.3030900000     0.8741200000
   13      H      -1.0689000000    -1.5529900000     0.5344600000
   14      H      -2.2790700000    -2.7097400000    -0.1155900000
   15      H      -1.9227600000    -1.1898800000    -1.0034500000
   16      H      -2.8147300000    -1.1318700000     0.5547500000
   17      H      -1.2722600000     1.3304800000     3.7529300000
   18      H      -2.0272100000     2.9591800000     3.7193400000
   19      H      -2.2177700000     1.9101300000     5.1652300000
   20      H      -3.0571800000     1.4897000000     3.6340700000
   21      H       2.7395300000     2.0705700000     4.1117700000
   22      H       1.2150300000     1.9157700000     3.1764700000
   23      H       1.4142300000     3.2605700000     4.3483900000
   24      H       1.2244300000     1.5752600000     4.9401000000
   25      H       2.9271100000    -1.0833600000     3.7354200000
   26      H       1.7537600000    -2.4356100000     3.5868400000
   27      H       1.2014700000    -0.7402100000     3.3739100000
   28      H       1.6774100000    -1.3311900000     5.0015600000
   29      H      -1.0449600000    -1.6361700000     4.5517300000
   30      H      -2.2975400000    -2.6899200000     3.8126700000
   31      H      -1.9079700000    -1.1022900000     3.0700900000
   32      H      -2.7763200000    -1.1693900000     4.6410100000
   33      He     10.0000000000    10.0000000000    10.0000000000
   34      He    -10.0000000000    10.0000000000    10.0000000000
 ----------------------------------------------------------------
 Nuclear Repulsion Energy =    68.5307943207 hartrees
 There are       34 alpha and        2 beta electrons
 Requested basis set is 6-31G(d)
 There are 68 shells and 68 basis functions

Total QAlloc Memory Limit   2000 MB
Mega-Array Size        61 MB
MEM_STATIC part        62 MB

finished with qalloc call

 Q-Chem warning in module /home/nmayhall/qcSoftware/qchem/qchem.svn-casman/forms1/BasisType.C, line 1375:

 SAD: How to set up polarization functions for non-Pople basis?

 Requested basis set is rimp2-VDZ
 There are 202 shells and 466 basis functions
 Job number = 2, Threshold = 1.00E-12
Integral type ranges set in mkLRange.C for JobNum: 2  <1-7|1-7>
Symmetry turned off temporarily
 Using the largest function pair in Schwarz integrals
Total number of integrals generated =            3639
Symmetry turned back on
 A cutoff of  1.0D-12 yielded   1773 shell pairs
 There are      1773 function pairs
 Job number = 11, Threshold = 1.00E-12
Integral type ranges set in mkLRange.C for JobNum: 11  <1-1|8-8>

 -------------------------------------------------------
 OpenMP Integral Computing Module                       
 Release: version 1.0, May 2013, Q-Chem Inc. Pittsburgh 
 -------------------------------------------------------
 Integral Job Info:
 Integral job number is                      11
 Integral operator is                         1
 short-range coefficients                     0
 long-range coefficients              100000000
 Omega coefficients                           0
 if combine SR and LR in K                    0
 Integral screening is                        0
 Integral computing path is                   2
 max size of driver memory is            800000
 size of driver memory is                 11780
 size of scratch memory is               800000
 max col of scratch BK array                289
 max len of scratch array in speh3            1
 max len of scratch index in speh4            2
 max int batch size is                      520
 min int batch size is                       52
 fixed nKL is                               520
 max L of basis functions is                  0
 order of int derivative is                   0
 number of shells is                         68
 number of basis is                          68
 number of cartesian basis is                68
 number of contracted shell pairs          1773
 number of primitive shell pairs           4323
 maxK2 (contraction) of shell pair            9
 max number of K2 of shell pair               1
 max number of CS2 of shell pair            906
 max number of PS2 of shell pair           2718
 mem total for path MDJ                   15888
 -------------------------------------------------------
 Smallest overlap matrix eigenvalue = 1.54E-01
 Multipole matrices computed through 2nd order

  Scale SEOQF with 1.000000e-02/1.000000e-02/1.000000e-02

 Standard Electronic Orientation quadrupole field applied
 Nucleus-field energy     =    -0.0000000016 hartrees
GuessMan:  IGuess = 1000
 Guess MOs from SCF MO coefficient file
 Reading MOs from coefficient file
 Reading MOs from coefficient file
scfman initvdwdat 
 A restricted Hartree-Fock SCF calculation will be
 performed using Geometric Direct Minimization
 SCF converges when RMS gradient is below 1.0E-08
Finding J and K together
 Job number = 22, Threshold = 1.00E-12
Integral type ranges set in mkLRange.C for JobNum: 22  <1-1|1-1>
Storing 115.61% of integrals
Total number of integrals generated =         1266655
 MakeJK  time:  CPU       0.28 s  wall       0.28 s
Fock build time:  0.28 s (CPU) 0.28 s (wall)
 ---------------------------------------
  Cycle       Energy        RMS Gradient
 ---------------------------------------
    1     -21.0285288821      1.26E-05  00000 Normal BFGS step
Finding J and K together
 Job number = 22, Threshold = 1.00E-12
Integral type ranges set in mkLRange.C for JobNum: 22  <1-1|1-1>
Storing 115.61% of integrals
Reusing in-core integrals buffer for job 22
 MakeJK  time:  CPU       0.06 s  wall       0.06 s
Fock build time:  0.06 s (CPU) 0.06 s (wall)
    2     -21.0285288822      6.74E-10  00000 Convergence criterion met
 ---------------------------------------
 SCF time:  CPU 0.35 s  wall 0.35 s
 Obtaining Corresponding orbitals

 Forming corresponding orbitals block-by-block...
 Size of singly occupied alpha block:      32 : 32.0000
 Size of doubly occupied block:             2 : 2.0000
 Size of singly occupied beta block:        0 : 0.0000
 Size of unoccupied block:                 34 : 34.0000
 Use scf_boys =     0 (Canonical)
                    1 (Boys)
                    2 (Pipek-Mezey)
                    3 (ER)
 Build new fock matrix
 I'm here
 I'm here
 Calling AOints...
 Job number = 22, Threshold = 1.00E-12
Integral type ranges set in mkLRange.C for JobNum: 22  <1-1|1-1>
Storing 115.61% of integrals
 done.
 E(SCF): disk=    -21.028528882229 current=    -21.028528882229 diff=   3.553e-14
 SCF   energy in the final basis set = -21.0285288822
 Total energy in the final basis set = -21.0285288822
 DevKeyword Parameters: 
 1sf_heis_projection                   1
  heisenberg_n_roots                   0
scf_corresponding_orbs                   1


 ========================================================
                       In SF-CAS-CI                      
 ========================================================
 DevKeyword Parameters: 
 1sf_heis_projection                   1
  heisenberg_n_roots                   0
scf_corresponding_orbs                   1

 Forming orbitals for SF-CAS calculation.
NBas   : 68
NOrb   : 68
NDOcc  : 2
NSOcc  : 32
NDVir  : 34
ISpin  : 0
e_hf: -21.02852888
 Using OPT1 Orbitals: Favg | Favg | Favg 
 A/B mix in Doubly occupied F  : 0.50000000
 A/B mix in Singly occupied F  : 0.50000000
 A/B mix in Doubly unoccupied F: 0.50000000
 Max of F(beta)ds      : 3.809e-16
 Max of F(alpha)sv     : 1.482e-11
 Max of F(average)dv   : 3.874e-11
 Orbital Energies  (D):
    1    -0.91413348    -0.91413348
    2    -0.91413222    -0.91413222
 Orbital Energies  (S):
    3    -0.39292227    -0.39292227
    4    -0.37754504    -0.37754504
    5    -0.37358479    -0.37358479
    6    -0.36739171    -0.36739171
    7    -0.35937626    -0.35937626
    8    -0.35384808    -0.35384808
    9    -0.35106701    -0.35106701
   10    -0.33850469    -0.33850469
   11    -0.17664123    -0.17664123
   12    -0.16538599    -0.16538599
   13    -0.15778171    -0.15778171
   14    -0.15253951    -0.15253951
   15    -0.14815495    -0.14815495
   16    -0.14379650    -0.14379650
   17    -0.14094289    -0.14094289
   18    -0.13698450    -0.13698450
   19    -0.13569300    -0.13569300
   20    -0.13160109    -0.13160109
   21    -0.12616625    -0.12616625
   22    -0.12443999    -0.12443999
   23    -0.12372590    -0.12372590
   24    -0.12195558    -0.12195558
   25    -0.11835691    -0.11835691
   26    -0.11473168    -0.11473168
   27    -0.11056018    -0.11056018
   28    -0.10964387    -0.10964387
   29    -0.10507313    -0.10507313
   30    -0.10179023    -0.10179023
   31    -0.09689259    -0.09689259
   32    -0.09445038    -0.09445038
   33    -0.08885648    -0.08885648
   34    -0.07697330    -0.07697330
 Orbital Energies  (V):
   35     0.85875830     0.85875830
   36     0.88241160     0.88241160
   37     0.89910755     0.89910755
   38     0.90951881     0.90951881
   39     0.92392096     0.92392096
   40     0.93828577     0.93828577
   41     0.94452112     0.94452112
   42     0.95256865     0.95256865
   43     0.96655099     0.96655099
   44     0.97560080     0.97560080
   45     0.99700036     0.99700036
   46     1.00463827     1.00463827
   47     1.01459521     1.01459521
   48     1.01498080     1.01498080
   49     1.03089883     1.03089883
   50     1.04168756     1.04168756
   51     1.05828997     1.05828997
   52     1.06484065     1.06484065
   53     1.07416142     1.07416142
   54     1.08976676     1.08976676
   55     1.09838595     1.09838595
   56     1.10186253     1.10186253
   57     1.11139326     1.11139326
   58     1.12326421     1.12326421
   59     1.15863668     1.15863668
   60     1.18598601     1.18598601
   61     1.18958117     1.18958117
   62     1.23605925     1.23605925
   63     1.28196812     1.28196812
   64     1.32924825     1.32924825
   65     1.35807434     1.35807434
   66     1.39985249     1.39985249
   67     1.39985375     1.39985375
   68     1.47434344     1.47434344
 tr(Pa)     :   34.0000000000
 tr(Pb)     :    2.0000000000
 E(core) with new P : -158.86884183
 E(HF) with new P   : -21.02852888
 Difference in Ehf  :  -2.9132e-13

 Number of spin flips: 1
 Use cas_local =    0 (Canonical)
                    1 (Boys)
                    2 (Pipek-Mezey)
                    3 (ER)
 Using Boys orbitals in casman
 
 
 
Calling Get_Boys in C++
 
 
 
Orbital 32 Variance 32.48259820
Orbital 31 Variance 36.14559241
Orbital 9 Variance 36.52843409
Orbital 22 Variance 36.96977949
Orbital 10 Variance 38.38211985
Orbital 28 Variance 38.69861039
Orbital 30 Variance 39.22586107
Orbital 11 Variance 40.95640298
Orbital 1 Variance 41.26288795
Orbital 21 Variance 41.32686872
Orbital 14 Variance 41.53801345
Orbital 29 Variance 42.50217309
Orbital 17 Variance 43.89826024
Orbital 20 Variance 43.94934543
Orbital 2 Variance 44.34313990
Orbital 27 Variance 44.40289185
Orbital 3 Variance 44.45613752
Orbital 4 Variance 44.59099770
Orbital 25 Variance 44.85285146
Orbital 12 Variance 44.98824977
Orbital 7 Variance 46.78616949
Orbital 6 Variance 46.94049935
Orbital 13 Variance 47.02567610
Orbital 5 Variance 47.34693860
Orbital 8 Variance 49.07693669
Orbital 26 Variance 49.34333250
Orbital 19 Variance 49.81196347
Orbital 16 Variance 50.61623191
Orbital 23 Variance 51.22139836
Orbital 15 Variance 53.41032119
Orbital 24 Variance 53.84739598
Orbital 18 Variance 54.97416668
          ***** NUMBER OF SADDLE POINTS SO FAR = 0 ******

Initially in boys_jacobi.C before sweep, get_boys, boysval = 557.184045
In BOYS_JACOBI SWEEPS for get_boys, ending in round     7  because max_diff = 8.832840e-07


---> BEGIN 2nd Der Calculation    ******  
Guessing MaxD =  20 and MinD = 10
in get_boys.C: p = 0 guessthresh  51.5277653767 numsofar 48 MinD 10
in get_boys.C: p = 1 guessthresh  51.0277653767 numsofar 43 MinD 10
in get_boys.C: p = 2 guessthresh  50.7777653767 numsofar 13 MinD 10
in get_boys.C: p = 3 guessthresh  50.6527653767 numsofar 4 MinD 10
DimInGuess 4 mineval  50.5277653767 guessthresh  50.6527653767
round 0 sizeofsub 4 eval0 4.992344e+01 diffeval0 1.000489e+05 length_qM 1.119433e+00 thresh 1.000000e-08
round 1 sizeofsub 5 eval0 4.941347e+01 diffeval0 5.099675e-01 length_qM 1.708293e-01 thresh 1.000000e-08
round 2 sizeofsub 6 eval0 4.941014e+01 diffeval0 3.334311e-03 length_qM 2.830208e-01 thresh 1.000000e-08
round 3 sizeofsub 7 eval0 4.940819e+01 diffeval0 1.952248e-03 length_qM 2.010553e-01 thresh 1.000000e-08
round 4 sizeofsub 8 eval0 4.940772e+01 diffeval0 4.632773e-04 length_qM 7.828254e-03 thresh 1.000000e-08
round 5 sizeofsub 9 eval0 4.940769e+01 diffeval0 3.624768e-05 length_qM 2.610382e-02 thresh 1.000000e-08
round 6 sizeofsub 10 eval0 4.940768e+01 diffeval0 5.680647e-06 length_qM 6.299768e-04 thresh 1.000000e-08
round 7 sizeofsub 11 eval0 4.940768e+01 diffeval0 3.948784e-09 length_qM 1.873237e-04 thresh 1.000000e-08
round 8 sizeofsub 12 eval0 4.940768e+01 diffeval0 4.645742e-10 length_qM 1.805308e-05 thresh 1.000000e-08
round 9 sizeofsub 13 eval0 4.940768e+01 diffeval0 1.361968e-10 length_qM 2.905065e-05 thresh 1.000000e-08
round 10 sizeofsub 14 eval0 4.940768e+01 diffeval0 1.212044e-10 length_qM 2.207199e-05 thresh 1.000000e-08
round 11 sizeofsub 15 eval0 4.940768e+01 diffeval0 1.016787e-11 length_qM 1.936470e-05 thresh 1.000000e-08
round 12 sizeofsub 16 eval0 4.940768e+01 diffeval0 2.515321e-11 length_qM 2.660722e-05 thresh 1.000000e-08
round 13 sizeofsub 17 eval0 4.940768e+01 diffeval0 6.278356e-11 length_qM 1.824760e-05 thresh 1.000000e-08
round 14 sizeofsub 18 eval0 4.939478e+01 diffeval0 1.289964e-02 length_qM 3.093858e-01 thresh 1.000000e-08
round 15 sizeofsub 19 eval0 4.939288e+01 diffeval0 1.903650e-03 length_qM 1.144344e-01 thresh 1.000000e-08
round 16 sizeofsub 20 eval0 4.939217e+01 diffeval0 7.061251e-04 length_qM 2.050345e-01 thresh 1.000000e-08
round 17 sizeofsub 11 eval0 4.939147e+01 diffeval0 7.027578e-04 length_qM 4.778367e-02 thresh 1.000000e-08
round 18 sizeofsub 12 eval0 4.939138e+01 diffeval0 8.636332e-05 length_qM 1.022177e-02 thresh 1.000000e-08
round 19 sizeofsub 13 eval0 4.939130e+01 diffeval0 7.919507e-05 length_qM 4.086941e-02 thresh 1.000000e-08
round 20 sizeofsub 14 eval0 4.939127e+01 diffeval0 3.523915e-05 length_qM 2.225325e-02 thresh 1.000000e-08
round 21 sizeofsub 15 eval0 4.939126e+01 diffeval0 8.654512e-06 length_qM 9.728263e-03 thresh 1.000000e-08
round 22 sizeofsub 16 eval0 4.939125e+01 diffeval0 9.966971e-06 length_qM 6.124857e-03 thresh 1.000000e-08
round 23 sizeofsub 17 eval0 4.939125e+01 diffeval0 2.639548e-06 length_qM 1.999374e-03 thresh 1.000000e-08
round 24 sizeofsub 18 eval0 4.939125e+01 diffeval0 4.473788e-07 length_qM 3.611706e-03 thresh 1.000000e-08
round 25 sizeofsub 19 eval0 4.939125e+01 diffeval0 3.257373e-07 length_qM 2.800001e-03 thresh 1.000000e-08
round 26 sizeofsub 20 eval0 4.939125e+01 diffeval0 8.874328e-08 length_qM 3.393470e-04 thresh 1.000000e-08
round 27 sizeofsub 11 eval0 4.939125e+01 diffeval0 2.792735e-08 length_qM 8.068216e-04 thresh 1.000000e-08
round 28 sizeofsub 12 eval0 4.939125e+01 diffeval0 2.699215e-08 length_qM 8.461155e-04 thresh 1.000000e-08
round 29 sizeofsub 13 eval0 4.939125e+01 diffeval0 7.220933e-09 length_qM 8.807394e-05 thresh 1.000000e-08
round 30 sizeofsub 14 eval0 4.939125e+01 diffeval0 1.906955e-09 length_qM 1.675251e-04 thresh 1.000000e-08
round 31 sizeofsub 15 eval0 4.939125e+01 diffeval0 3.227797e-09 length_qM 8.190406e-05 thresh 1.000000e-08
round 32 sizeofsub 16 eval0 4.939125e+01 diffeval0 1.798171e-10 length_qM 4.788921e-05 thresh 1.000000e-08
round 33 sizeofsub 17 eval0 4.939125e+01 diffeval0 1.599787e-10 length_qM 5.485318e-05 thresh 1.000000e-08
round 34 sizeofsub 18 eval0 4.939125e+01 diffeval0 1.112497e-10 length_qM 6.748732e-06 thresh 1.000000e-08
round 35 sizeofsub 19 eval0 4.939125e+01 diffeval0 4.412470e-12 length_qM 3.573864e-06 thresh 1.000000e-08
round 36 sizeofsub 20 eval0 4.939125e+01 diffeval0 8.888890e-12 length_qM 1.398684e-05 thresh 1.000000e-08
round 37 sizeofsub 11 eval0 4.939125e+01 diffeval0 1.342926e-12 length_qM 7.283822e-07 thresh 1.000000e-08
Converged to smallest eigenvalue: eval0 4.939125e+01

Success!!! No Negative Eigenvalues: Ending Get Boys in C++ ...Bye Bye
Orbital 19 Variance 2.73043405
Orbital 32 Variance 2.73110474
Orbital 29 Variance 2.73559204
Orbital 16 Variance 2.73713104
Orbital 9 Variance 2.73788642
Orbital 17 Variance 2.74002927
Orbital 10 Variance 2.74329626
Orbital 27 Variance 2.74953288
Orbital 26 Variance 2.75770638
Orbital 11 Variance 2.75839971
Orbital 31 Variance 2.75880667
Orbital 12 Variance 2.75968109
Orbital 15 Variance 2.76106907
Orbital 24 Variance 2.76199682
Orbital 22 Variance 2.76279609
Orbital 18 Variance 2.76364050
Orbital 30 Variance 2.76376103
Orbital 13 Variance 2.76915309
Orbital 25 Variance 2.77041903
Orbital 2 Variance 2.77172575
Orbital 28 Variance 2.77352385
Orbital 20 Variance 2.77353894
Orbital 6 Variance 2.77362181
Orbital 14 Variance 2.77375473
Orbital 3 Variance 2.77421394
Orbital 7 Variance 2.77458075
Orbital 4 Variance 2.77483497
Orbital 5 Variance 2.77497001
Orbital 1 Variance 2.77516341
Orbital 8 Variance 2.77606641
Orbital 23 Variance 2.77660158
Orbital 21 Variance 2.77700875
EXECUTING ORTHO_FUNC DESTRUCTOR

 Dimensions of orbital sub-spaces:    
 Number Hole Orbs:Alpha:Beta:       2    2    2
 Number Active Orbs:Alpha:Beta:    32   31    1
 Number Part Orbs:Alpha:Beta:      34    0    0

 Dimensions in SF-RAS-hp calculation: 
 Number of active space determinants:  1024
 Number of hole space determinants:    31808
 Number of part space determinants:    540736
 Number of hole-part determinants:     16868420
 Total 1x space:                       573568
 Total singles space:                  17441988
 REM_MEM_TOT: 2000
 Memory Used: 0
 Memory Left: 2000
 Memory Need: 54
 Constructing 1e MO integrals
 Form (P|Q)**(-1/2)...
 Job number = 66, Threshold = 1.00E-12
Integral type ranges set in mkLRange.C for JobNum: 66  <2-7|2-7>
Symmetry turned off temporarily
Storing 115.61% of integrals
Total number of integrals generated =          124935
Symmetry turned back on
 Forming (pq|P)...
 Forming Active-Active (aa|P) integrals...

 Entering first-index batching code with I1Strt =    3 batch size =   32
 Job number = 65, Threshold = 1.00E-12
Integral type ranges set in mkLRange.C for JobNum: 65  <1-1|2-7>
Symmetry turned off temporarily
Storing 115.61% of integrals
Total number of integrals generated =          882954
Symmetry turned back on
 Forming Active-Active B integrals...
 Contracting B matrices to form 2e integrals. 
 Forming 2J-K over o,v with exact integrals
 Calling AOints... Job number = 22, Threshold = 1.00E-12
Integral type ranges set in mkLRange.C for JobNum: 22  <1-1|1-1>
Storing 115.61% of integrals
Total number of integrals generated =         1266655
 done.

 ROHF energy found on disk: 
 E(ROHF):         -21.02852888
-21.02852888
 First 10 Diagonal elements of H: 
 1111111111111111111111111111111_ | 1_______________________________        -20.47179677
 1111111111111111111111111111111_ | _1______________________________        -20.49333610
 1111111111111111111111111111111_ | __1_____________________________        -20.51676050
 1111111111111111111111111111111_ | ___1____________________________        -20.45274497
 1111111111111111111111111111111_ | ____1___________________________        -20.63659051
 1111111111111111111111111111111_ | _____1__________________________        -20.44098461
 1111111111111111111111111111111_ | ______1_________________________        -20.51216665
 1111111111111111111111111111111_ | _______1________________________        -20.45393570
 1111111111111111111111111111111_ | ________1_______________________        -20.49111174
 1111111111111111111111111111111_ | _________1______________________        -20.48318604
 Fill S2_CAS Matrix...  done.
 Fill H_CAS Matrix...  done.

 Diagonalizing H_CAS 
 Diagonalizing with divide and conquer algorithm 
 Entering cast_sfcas_to_sfcis
 ===================================================================
 Theory           State:          Energy (au)       (eV)       <S2>
 -------------------------------------------------------------------
 SF-CAS               1:       -21.0951470975     0.0000   240.0000
 SF-CAS               2:       -21.0932776027     0.0509   240.0000
 SF-CAS               3:       -21.0927272614     0.0658   240.0000
 SF-CAS               4:       -21.0923371495     0.0765   240.0000
 SF-CAS               5:       -21.0912993695     0.1047   240.0000
 SF-CAS               6:       -21.0903453009     0.1307   240.0000
 SF-CAS               7:       -21.0900038586     0.1400   240.0000
 SF-CAS               8:       -21.0899050958     0.1426   240.0000
 SF-CAS               9:       -21.0897517984     0.1468   240.0000
 SF-CAS              10:       -21.0894660506     0.1546   240.0000
 SF-CAS              11:       -21.0889713731     0.1681   240.0000
 SF-CAS              12:       -21.0887027792     0.1754   240.0000
 SF-CAS              13:       -21.0886291526     0.1774   240.0000
 SF-CAS              14:       -21.0882163033     0.1886   240.0000
 SF-CAS              15:       -21.0881323324     0.1909   240.0000
 SF-CAS              16:       -21.0879020234     0.1972   240.0000
 SF-CAS              17:       -21.0877262057     0.2019   240.0000
 SF-CAS              18:       -21.0876792103     0.2032   240.0000
 SF-CAS              19:       -21.0876120244     0.2050   240.0000
 SF-CAS              20:       -21.0874662742     0.2090   240.0000
 SF-CAS              21:       -21.0874393026     0.2097   240.0000
 SF-CAS              22:       -21.0873215323     0.2129   240.0000
 SF-CAS              23:       -21.0871535110     0.2175   240.0000
 SF-CAS              24:       -21.0871043321     0.2189   240.0000
 SF-CAS              25:       -21.0335950495     1.6749   240.0000
 SF-CAS              26:       -21.0321421392     1.7145   240.0000
 SF-CAS              27:       -21.0320667156     1.7165   240.0000
 SF-CAS              28:       -21.0318244872     1.7231   240.0000
 SF-CAS              29:       -21.0305522130     1.7577   240.0000
 SF-CAS              30:       -21.0302356793     1.7663   240.0000
 SF-CAS              31:       -21.0301982484     1.7674   240.0000
 SF-CAS              32:       -21.0285288822     1.8128   272.0000
 SF-CAS              33:       -20.7849972614     8.4397   240.0000
 SF-CAS              34:       -20.7844530181     8.4545   240.0000
 SF-CAS              35:       -20.7822284090     8.5150   240.0000
 SF-CAS              36:       -20.7811937683     8.5432   240.0000
 SF-CAS              37:       -20.7795369198     8.5883   240.0000
 SF-CAS              38:       -20.7792944222     8.5949   240.0000
 SF-CAS              39:       -20.7789767662     8.6035   240.0000
 SF-CAS              40:       -20.7785428907     8.6153   240.0000
 SF-CAS              41:       -20.7782256676     8.6240   240.0000
 SF-CAS              42:       -20.7769126664     8.6597   240.0000
 SF-CAS              43:       -20.7758213715     8.6894   240.0000
 SF-CAS              44:       -20.7756983083     8.6927   240.0000
 SF-CAS              45:       -20.7755142762     8.6977   240.0000
 SF-CAS              46:       -20.7746083214     8.7224   240.0000
 SF-CAS              47:       -20.7743774692     8.7287   240.0000
 SF-CAS              48:       -20.7734762557     8.7532   240.0000
 SF-CAS              49:       -20.7732327834     8.7598   240.0000
 SF-CAS              50:       -20.7716380179     8.8032   240.0000
 SF-CAS              51:       -20.7709921027     8.8208   240.0000
 SF-CAS              52:       -20.7705699120     8.8323   240.0000
 SF-CAS              53:       -20.7695853004     8.8591   240.0000
 SF-CAS              54:       -20.7689698254     8.8758   240.0000
 SF-CAS              55:       -20.7679725777     8.9030   240.0000
 SF-CAS              56:       -20.7677657827     8.9086   240.0000
 SF-CAS              57:       -20.7674072530     8.9183   240.0000
 SF-CAS              58:       -20.7663691124     8.9466   240.0000
 SF-CAS              59:       -20.7659835629     8.9571   240.0000
 SF-CAS              60:       -20.7646843939     8.9924   240.0000
 SF-CAS              61:       -20.7643055483     9.0027   240.0000
 SF-CAS              62:       -20.7627853386     9.0441   240.0000
 SF-CAS              63:       -20.7618504249     9.0696   240.0000
 SF-CAS              64:       -20.7610628011     9.0910   240.0000
 SF-CAS              65:       -20.7607108594     9.1006   240.0000
 SF-CAS              66:       -20.7603039047     9.1116   240.0000
 SF-CAS              67:       -20.7593310293     9.1381   240.0000
 SF-CAS              68:       -20.7588985488     9.1499   240.0000
 SF-CAS              69:       -20.7582018953     9.1688   240.0000
 SF-CAS              70:       -20.7569997222     9.2015   240.0000
 SF-CAS              71:       -20.7558910843     9.2317   240.0000
 SF-CAS              72:       -20.7551319191     9.2524   240.0000
 SF-CAS              73:       -20.7540654739     9.2814   240.0000
 SF-CAS              74:       -20.7534473792     9.2982   240.0000
 SF-CAS              75:       -20.7530204198     9.3098   240.0000
 SF-CAS              76:       -20.7522163080     9.3317   240.0000
 SF-CAS              77:       -20.7517219993     9.3452   240.0000
 SF-CAS              78:       -20.7506812160     9.3735   240.0000
 SF-CAS              79:       -20.7495342274     9.4047   240.0000
 SF-CAS              80:       -20.7490107406     9.4189   240.0000
 SF-CAS              81:       -20.7488587799     9.4231   240.0000
 SF-CAS              82:       -20.7479916541     9.4467   240.0000
 SF-CAS              83:       -20.7472047893     9.4681   240.0000
 SF-CAS              84:       -20.7461957706     9.4955   240.0000
 SF-CAS              85:       -20.7454817600     9.5150   240.0000
 SF-CAS              86:       -20.7450523491     9.5267   240.0000
 SF-CAS              87:       -20.7438504505     9.5594   240.0000
 SF-CAS              88:       -20.7426647151     9.5916   240.0000
 SF-CAS              89:       -20.7420128560     9.6094   240.0000
 SF-CAS              90:       -20.7411973252     9.6316   240.0000
 SF-CAS              91:       -20.7402295264     9.6579   240.0000
 SF-CAS              92:       -20.7391848836     9.6863   240.0000
 SF-CAS              93:       -20.7384588258     9.7061   240.0000
 SF-CAS              94:       -20.7383058945     9.7102   240.0000
 SF-CAS              95:       -20.7371980879     9.7404   240.0000
 SF-CAS              96:       -20.7369334606     9.7476   240.0000
 SF-CAS              97:       -20.7359261393     9.7750   240.0000
 SF-CAS              98:       -20.7353164068     9.7916   240.0000
 SF-CAS              99:       -20.7333218956     9.8459   240.0000
 SF-CAS             100:       -20.7320144344     9.8814   240.0000
 SF-CAS             101:       -20.7295744390     9.9478   240.0000
 SF-CAS             102:       -20.7283962841     9.9799   240.0000
 SF-CAS             103:       -20.7277180012     9.9984   240.0000
 SF-CAS             104:       -20.7269662490    10.0188   240.0000
 SF-CAS             105:       -20.7262170267    10.0392   240.0000
 SF-CAS             106:       -20.7248577589    10.0762   240.0000
 SF-CAS             107:       -20.7245728726    10.0839   240.0000
 SF-CAS             108:       -20.7235986675    10.1104   240.0000
 SF-CAS             109:       -20.7227003868    10.1349   240.0000
 SF-CAS             110:       -20.7226370821    10.1366   240.0000
 SF-CAS             111:       -20.7222265166    10.1478   240.0000
 SF-CAS             112:       -20.7219512604    10.1553   240.0000
 SF-CAS             113:       -20.7217256703    10.1614   240.0000
 SF-CAS             114:       -20.7207265955    10.1886   240.0000
 SF-CAS             115:       -20.7202076169    10.2027   240.0000
 SF-CAS             116:       -20.7198820831    10.2116   240.0000
 SF-CAS             117:       -20.7196424295    10.2181   240.0000
 SF-CAS             118:       -20.7191795337    10.2307   240.0000
 SF-CAS             119:       -20.7182734288    10.2554   240.0000
 SF-CAS             120:       -20.7170884591    10.2876   240.0000
 SF-CAS             121:       -20.7165308784    10.3028   240.0000
 SF-CAS             122:       -20.7159247226    10.3193   240.0000
 SF-CAS             123:       -20.7149208153    10.3466   240.0000
 SF-CAS             124:       -20.7145772385    10.3559   240.0000
 SF-CAS             125:       -20.7139418564    10.3732   240.0000
 SF-CAS             126:       -20.7133994796    10.3880   240.0000
 SF-CAS             127:       -20.7133407078    10.3896   240.0000
 SF-CAS             128:       -20.7127610666    10.4054   240.0000
 SF-CAS             129:       -20.7121574149    10.4218   240.0000
 SF-CAS             130:       -20.7113584759    10.4435   240.0000
 SF-CAS             131:       -20.7108043875    10.4586   240.0000
 SF-CAS             132:       -20.7101140255    10.4774   240.0000
 SF-CAS             133:       -20.7098266812    10.4852   240.0000
 SF-CAS             134:       -20.7087059278    10.5157   240.0000
 SF-CAS             135:       -20.7077924977    10.5406   240.0000
 SF-CAS             136:       -20.7058437700    10.5936   240.0000
 SF-CAS             137:       -20.7054796210    10.6035   240.0000
 SF-CAS             138:       -20.7037184056    10.6514   240.0000
 SF-CAS             139:       -20.7035059874    10.6572   240.0000
 SF-CAS             140:       -20.7024172792    10.6868   240.0000
 SF-CAS             141:       -20.7012382714    10.7189   240.0000
 SF-CAS             142:       -20.7005553901    10.7375   240.0000
 SF-CAS             143:       -20.7000419094    10.7515   240.0000
 SF-CAS             144:       -20.6990058667    10.7797   240.0000
 SF-CAS             145:       -20.6986550831    10.7892   240.0000
 SF-CAS             146:       -20.6981939790    10.8017   240.0000
 SF-CAS             147:       -20.6980182405    10.8065   240.0000
 SF-CAS             148:       -20.6970727687    10.8323   240.0000
 SF-CAS             149:       -20.6961869103    10.8564   240.0000
 SF-CAS             150:       -20.6956518358    10.8709   240.0000
 SF-CAS             151:       -20.6952482757    10.8819   240.0000
 SF-CAS             152:       -20.6947237203    10.8962   240.0000
 SF-CAS             153:       -20.6936436238    10.9256   240.0000
 SF-CAS             154:       -20.6934028555    10.9321   240.0000
 SF-CAS             155:       -20.6926476771    10.9527   240.0000
 SF-CAS             156:       -20.6913360084    10.9884   240.0000
 SF-CAS             157:       -20.6910983573    10.9948   240.0000
 SF-CAS             158:       -20.6904334389    11.0129   240.0000
 SF-CAS             159:       -20.6901554157    11.0205   240.0000
 SF-CAS             160:       -20.6899002434    11.0274   240.0000
 SF-CAS             161:       -20.6890941944    11.0494   240.0000
 SF-CAS             162:       -20.6883558342    11.0695   240.0000
 SF-CAS             163:       -20.6872011594    11.1009   240.0000
 SF-CAS             164:       -20.6867135677    11.1142   240.0000
 SF-CAS             165:       -20.6864846902    11.1204   240.0000
 SF-CAS             166:       -20.6858324071    11.1381   240.0000
 SF-CAS             167:       -20.6853246770    11.1519   240.0000
 SF-CAS             168:       -20.6850102400    11.1605   240.0000
 SF-CAS             169:       -20.6842657557    11.1808   240.0000
 SF-CAS             170:       -20.6835021447    11.2015   240.0000
 SF-CAS             171:       -20.6826956628    11.2235   240.0000
 SF-CAS             172:       -20.6823614286    11.2326   240.0000
 SF-CAS             173:       -20.6820472180    11.2411   240.0000
 SF-CAS             174:       -20.6815544625    11.2545   240.0000
 SF-CAS             175:       -20.6811817850    11.2647   240.0000
 SF-CAS             176:       -20.6809627703    11.2706   240.0000
 SF-CAS             177:       -20.6802409332    11.2903   240.0000
 SF-CAS             178:       -20.6800157754    11.2964   240.0000
 SF-CAS             179:       -20.6797115461    11.3047   240.0000
 SF-CAS             180:       -20.6792521444    11.3172   240.0000
 SF-CAS             181:       -20.6783224998    11.3425   240.0000
 SF-CAS             182:       -20.6781860179    11.3462   240.0000
 SF-CAS             183:       -20.6775623077    11.3632   240.0000
 SF-CAS             184:       -20.6772157934    11.3726   240.0000
 SF-CAS             185:       -20.6769876147    11.3788   240.0000
 SF-CAS             186:       -20.6762510282    11.3989   240.0000
 SF-CAS             187:       -20.6759554483    11.4069   240.0000
 SF-CAS             188:       -20.6752393383    11.4264   240.0000
 SF-CAS             189:       -20.6745788024    11.4444   240.0000
 SF-CAS             190:       -20.6743244441    11.4513   240.0000
 SF-CAS             191:       -20.6737319918    11.4674   240.0000
 SF-CAS             192:       -20.6719745871    11.5152   240.0000
 SF-CAS             193:       -20.6718181486    11.5195   240.0000
 SF-CAS             194:       -20.6713126162    11.5332   240.0000
 SF-CAS             195:       -20.6708667645    11.5454   240.0000
 SF-CAS             196:       -20.6707359623    11.5489   240.0000
 SF-CAS             197:       -20.6698400178    11.5733   240.0000
 SF-CAS             198:       -20.6695489508    11.5812   240.0000
 SF-CAS             199:       -20.6690496121    11.5948   240.0000
 SF-CAS             200:       -20.6681575630    11.6191   240.0000
 SF-CAS             201:       -20.6665724087    11.6622   240.0000
 SF-CAS             202:       -20.6654903603    11.6917   240.0000
 SF-CAS             203:       -20.6645309725    11.7178   240.0000
 SF-CAS             204:       -20.6623375091    11.7775   240.0000
 SF-CAS             205:       -20.6601405334    11.8372   240.0000
 SF-CAS             206:       -20.6594521511    11.8560   240.0000
 SF-CAS             207:       -20.6573121756    11.9142   240.0000
 SF-CAS             208:       -20.6570387917    11.9216   240.0000
 SF-CAS             209:       -20.6550116333    11.9768   240.0000
 SF-CAS             210:       -20.6546588812    11.9864   240.0000
 SF-CAS             211:       -20.6543832936    11.9939   240.0000
 SF-CAS             212:       -20.6538294794    12.0090   240.0000
 SF-CAS             213:       -20.6525656755    12.0434   240.0000
 SF-CAS             214:       -20.6510174290    12.0855   240.0000
 SF-CAS             215:       -20.6505751293    12.0975   240.0000
 SF-CAS             216:       -20.6503585170    12.1034   240.0000
 SF-CAS             217:       -20.6498935333    12.1161   240.0000
 SF-CAS             218:       -20.6497340547    12.1204   240.0000
 SF-CAS             219:       -20.6495029016    12.1267   240.0000
 SF-CAS             220:       -20.6491731731    12.1357   240.0000
 SF-CAS             221:       -20.6486746267    12.1493   240.0000
 SF-CAS             222:       -20.6484862672    12.1544   240.0000
 SF-CAS             223:       -20.6479557885    12.1688   240.0000
 SF-CAS             224:       -20.6475805525    12.1790   240.0000
 SF-CAS             225:       -20.6472582017    12.1878   240.0000
 SF-CAS             226:       -20.6472226508    12.1888   240.0000
 SF-CAS             227:       -20.6467528548    12.2015   240.0000
 SF-CAS             228:       -20.6466457508    12.2045   240.0000
 SF-CAS             229:       -20.6463391768    12.2128   240.0000
 SF-CAS             230:       -20.6459363392    12.2238   240.0000
 SF-CAS             231:       -20.6458277293    12.2267   240.0000
 SF-CAS             232:       -20.6455726972    12.2337   240.0000
 SF-CAS             233:       -20.6448127576    12.2543   240.0000
 SF-CAS             234:       -20.6446854190    12.2578   240.0000
 SF-CAS             235:       -20.6443103553    12.2680   240.0000
 SF-CAS             236:       -20.6441799575    12.2716   240.0000
 SF-CAS             237:       -20.6441042542    12.2736   240.0000
 SF-CAS             238:       -20.6437952011    12.2820   240.0000
 SF-CAS             239:       -20.6435632031    12.2883   240.0000
 SF-CAS             240:       -20.6434585150    12.2912   240.0000
 SF-CAS             241:       -20.6432835274    12.2960   240.0000
 SF-CAS             242:       -20.6430442905    12.3025   240.0000
 SF-CAS             243:       -20.6429140251    12.3060   240.0000
 SF-CAS             244:       -20.6426155230    12.3141   240.0000
 SF-CAS             245:       -20.6424791519    12.3178   240.0000
 SF-CAS             246:       -20.6421173424    12.3277   240.0000
 SF-CAS             247:       -20.6420622206    12.3292   240.0000
 SF-CAS             248:       -20.6414914391    12.3447   240.0000
 SF-CAS             249:       -20.6409331659    12.3599   240.0000
 SF-CAS             250:       -20.6405569100    12.3701   240.0000
 SF-CAS             251:       -20.6402950930    12.3773   240.0000
 SF-CAS             252:       -20.6401150249    12.3822   240.0000
 SF-CAS             253:       -20.6398708964    12.3888   240.0000
 SF-CAS             254:       -20.6395624837    12.3972   240.0000
 SF-CAS             255:       -20.6386464408    12.4221   240.0000
 SF-CAS             256:       -20.6386018440    12.4233   240.0000
 SF-CAS             257:       -20.6382150964    12.4339   240.0000
 SF-CAS             258:       -20.6379056611    12.4423   240.0000
 SF-CAS             259:       -20.6373562110    12.4572   240.0000
 SF-CAS             260:       -20.6372007955    12.4615   240.0000
 SF-CAS             261:       -20.6367886977    12.4727   240.0000
 SF-CAS             262:       -20.6364748455    12.4812   240.0000
 SF-CAS             263:       -20.6357888039    12.4999   240.0000
 SF-CAS             264:       -20.6353063772    12.5130   240.0000
 SF-CAS             265:       -20.6352386199    12.5149   240.0000
 SF-CAS             266:       -20.6346856162    12.5299   240.0000
 SF-CAS             267:       -20.6333727527    12.5656   240.0000
 SF-CAS             268:       -20.6320904079    12.6005   240.0000
 SF-CAS             269:       -20.6315264033    12.6159   240.0000
 SF-CAS             270:       -20.6309303531    12.6321   240.0000
 SF-CAS             271:       -20.6288311103    12.6892   240.0000
 SF-CAS             272:       -20.6283603040    12.7020   240.0000
 SF-CAS             273:       -20.5823449150    13.9542   240.0000
 SF-CAS             274:       -20.5785527999    14.0574   240.0000
 SF-CAS             275:       -20.5761002608    14.1241   240.0000
 SF-CAS             276:       -20.5726931436    14.2168   240.0000
 SF-CAS             277:       -20.5710295195    14.2621   240.0000
 SF-CAS             278:       -20.5686365741    14.3272   240.0000
 SF-CAS             279:       -20.5665224620    14.3847   240.0000
 SF-CAS             280:       -20.5652514218    14.4193   240.0000
 SF-CAS             281:       -20.5641827183    14.4484   240.0000
 SF-CAS             282:       -20.5637417007    14.4604   240.0000
 SF-CAS             283:       -20.5630726083    14.4786   240.0000
 SF-CAS             284:       -20.5615620799    14.5197   240.0000
 SF-CAS             285:       -20.5611950596    14.5297   240.0000
 SF-CAS             286:       -20.5601181115    14.5590   240.0000
 SF-CAS             287:       -20.5597925479    14.5679   240.0000
 SF-CAS             288:       -20.5586821016    14.5981   240.0000
 SF-CAS             289:       -20.5581558925    14.6124   240.0000
 SF-CAS             290:       -20.5574272346    14.6322   240.0000
 SF-CAS             291:       -20.5568387372    14.6483   240.0000
 SF-CAS             292:       -20.5564011494    14.6602   240.0000
 SF-CAS             293:       -20.5555876318    14.6823   240.0000
 SF-CAS             294:       -20.5549394836    14.6999   240.0000
 SF-CAS             295:       -20.5546391669    14.7081   240.0000
 SF-CAS             296:       -20.5539130002    14.7279   240.0000
 SF-CAS             297:       -20.5535193485    14.7386   240.0000
 SF-CAS             298:       -20.5527838048    14.7586   240.0000
 SF-CAS             299:       -20.5521729614    14.7752   240.0000
 SF-CAS             300:       -20.5510144902    14.8067   240.0000
 SF-CAS             301:       -20.5506093696    14.8178   240.0000
 SF-CAS             302:       -20.5497845796    14.8402   240.0000
 SF-CAS             303:       -20.5490907267    14.8591   240.0000
 SF-CAS             304:       -20.5488001658    14.8670   240.0000
 SF-CAS             305:       -20.5479013696    14.8915   240.0000
 SF-CAS             306:       -20.5471325161    14.9124   240.0000
 SF-CAS             307:       -20.5468481847    14.9201   240.0000
 SF-CAS             308:       -20.5461211549    14.9399   240.0000
 SF-CAS             309:       -20.5459960670    14.9433   240.0000
 SF-CAS             310:       -20.5449573851    14.9716   240.0000
 SF-CAS             311:       -20.5446557077    14.9798   240.0000
 SF-CAS             312:       -20.5444462254    14.9855   240.0000
 SF-CAS             313:       -20.5438564188    15.0015   240.0000
 SF-CAS             314:       -20.5436349076    15.0076   240.0000
 SF-CAS             315:       -20.5432024617    15.0193   240.0000
 SF-CAS             316:       -20.5421495044    15.0480   240.0000
 SF-CAS             317:       -20.5417946137    15.0576   240.0000
 SF-CAS             318:       -20.5416513506    15.0615   240.0000
 SF-CAS             319:       -20.5410779666    15.0771   240.0000
 SF-CAS             320:       -20.5408260718    15.0840   240.0000
 SF-CAS             321:       -20.5403852696    15.0960   240.0000
 SF-CAS             322:       -20.5398795293    15.1097   240.0000
 SF-CAS             323:       -20.5393404065    15.1244   240.0000
 SF-CAS             324:       -20.5390620639    15.1320   240.0000
 SF-CAS             325:       -20.5380761091    15.1588   240.0000
 SF-CAS             326:       -20.5375347238    15.1736   240.0000
 SF-CAS             327:       -20.5373964872    15.1773   240.0000
 SF-CAS             328:       -20.5370007422    15.1881   240.0000
 SF-CAS             329:       -20.5364494116    15.2031   240.0000
 SF-CAS             330:       -20.5361264905    15.2119   240.0000
 SF-CAS             331:       -20.5351837791    15.2375   240.0000
 SF-CAS             332:       -20.5350313702    15.2417   240.0000
 SF-CAS             333:       -20.5345013338    15.2561   240.0000
 SF-CAS             334:       -20.5340149450    15.2693   240.0000
 SF-CAS             335:       -20.5337836456    15.2756   240.0000
 SF-CAS             336:       -20.5335769364    15.2813   240.0000
 SF-CAS             337:       -20.5326671045    15.3060   240.0000
 SF-CAS             338:       -20.5324820670    15.3110   240.0000
 SF-CAS             339:       -20.5319593607    15.3253   240.0000
 SF-CAS             340:       -20.5314966491    15.3379   240.0000
 SF-CAS             341:       -20.5310373169    15.3504   240.0000
 SF-CAS             342:       -20.5305463716    15.3637   240.0000
 SF-CAS             343:       -20.5301200400    15.3753   240.0000
 SF-CAS             344:       -20.5297591302    15.3851   240.0000
 SF-CAS             345:       -20.5294759211    15.3928   240.0000
 SF-CAS             346:       -20.5290789581    15.4036   240.0000
 SF-CAS             347:       -20.5282034349    15.4275   240.0000
 SF-CAS             348:       -20.5278464399    15.4372   240.0000
 SF-CAS             349:       -20.5275457883    15.4454   240.0000
 SF-CAS             350:       -20.5264904674    15.4741   240.0000
 SF-CAS             351:       -20.5263970887    15.4766   240.0000
 SF-CAS             352:       -20.5256505550    15.4969   240.0000
 SF-CAS             353:       -20.5252554587    15.5077   240.0000
 SF-CAS             354:       -20.5249020774    15.5173   240.0000
 SF-CAS             355:       -20.5247656454    15.5210   240.0000
 SF-CAS             356:       -20.5243098914    15.5334   240.0000
 SF-CAS             357:       -20.5238407482    15.5462   240.0000
 SF-CAS             358:       -20.5235274519    15.5547   240.0000
 SF-CAS             359:       -20.5232366511    15.5626   240.0000
 SF-CAS             360:       -20.5232200353    15.5631   240.0000
 SF-CAS             361:       -20.5228066026    15.5743   240.0000
 SF-CAS             362:       -20.5226920555    15.5774   240.0000
 SF-CAS             363:       -20.5224004252    15.5854   240.0000
 SF-CAS             364:       -20.5221840633    15.5913   240.0000
 SF-CAS             365:       -20.5218645378    15.6000   240.0000
 SF-CAS             366:       -20.5213253624    15.6146   240.0000
 SF-CAS             367:       -20.5211328893    15.6199   240.0000
 SF-CAS             368:       -20.5209698040    15.6243   240.0000
 SF-CAS             369:       -20.5207132738    15.6313   240.0000
 SF-CAS             370:       -20.5202910982    15.6428   240.0000
 SF-CAS             371:       -20.5198257458    15.6554   240.0000
 SF-CAS             372:       -20.5197446660    15.6576   240.0000
 SF-CAS             373:       -20.5195665992    15.6625   240.0000
 SF-CAS             374:       -20.5191993683    15.6725   240.0000
 SF-CAS             375:       -20.5190656511    15.6761   240.0000
 SF-CAS             376:       -20.5185878578    15.6891   240.0000
 SF-CAS             377:       -20.5185300564    15.6907   240.0000
 SF-CAS             378:       -20.5180609168    15.7035   240.0000
 SF-CAS             379:       -20.5174402399    15.7204   240.0000
 SF-CAS             380:       -20.5173257980    15.7235   240.0000
 SF-CAS             381:       -20.5171361220    15.7286   240.0000
 SF-CAS             382:       -20.5167006532    15.7405   240.0000
 SF-CAS             383:       -20.5164285664    15.7479   240.0000
 SF-CAS             384:       -20.5163719301    15.7494   240.0000
 SF-CAS             385:       -20.5162558161    15.7526   240.0000
 SF-CAS             386:       -20.5160356555    15.7586   240.0000
 SF-CAS             387:       -20.5158440576    15.7638   240.0000
 SF-CAS             388:       -20.5155797836    15.7710   240.0000
 SF-CAS             389:       -20.5154004859    15.7759   240.0000
 SF-CAS             390:       -20.5150892536    15.7843   240.0000
 SF-CAS             391:       -20.5149685261    15.7876   240.0000
 SF-CAS             392:       -20.5144440683    15.8019   240.0000
 SF-CAS             393:       -20.5141965246    15.8086   240.0000
 SF-CAS             394:       -20.5138676518    15.8176   240.0000
 SF-CAS             395:       -20.5137517818    15.8207   240.0000
 SF-CAS             396:       -20.5135746594    15.8255   240.0000
 SF-CAS             397:       -20.5133319967    15.8321   240.0000
 SF-CAS             398:       -20.5131305078    15.8376   240.0000
 SF-CAS             399:       -20.5128442703    15.8454   240.0000
 SF-CAS             400:       -20.5126312703    15.8512   240.0000
 SF-CAS             401:       -20.5125413080    15.8537   240.0000
 SF-CAS             402:       -20.5122819435    15.8607   240.0000
 SF-CAS             403:       -20.5120286437    15.8676   240.0000
 SF-CAS             404:       -20.5114618504    15.8830   240.0000
 SF-CAS             405:       -20.5113083560    15.8872   240.0000
 SF-CAS             406:       -20.5110682465    15.8937   240.0000
 SF-CAS             407:       -20.5108390862    15.9000   240.0000
 SF-CAS             408:       -20.5106114884    15.9062   240.0000
 SF-CAS             409:       -20.5103822873    15.9124   240.0000
 SF-CAS             410:       -20.5100289680    15.9220   240.0000
 SF-CAS             411:       -20.5099111225    15.9252   240.0000
 SF-CAS             412:       -20.5097623483    15.9293   240.0000
 SF-CAS             413:       -20.5096792456    15.9315   240.0000
 SF-CAS             414:       -20.5093113074    15.9416   240.0000
 SF-CAS             415:       -20.5089735317    15.9507   240.0000
 SF-CAS             416:       -20.5085258178    15.9629   240.0000
 SF-CAS             417:       -20.5085035293    15.9635   240.0000
 SF-CAS             418:       -20.5082347093    15.9709   240.0000
 SF-CAS             419:       -20.5081116079    15.9742   240.0000
 SF-CAS             420:       -20.5077701111    15.9835   240.0000
 SF-CAS             421:       -20.5075272375    15.9901   240.0000
 SF-CAS             422:       -20.5070872105    16.0021   240.0000
 SF-CAS             423:       -20.5070052703    16.0043   240.0000
 SF-CAS             424:       -20.5066538404    16.0139   240.0000
 SF-CAS             425:       -20.5065550815    16.0166   240.0000
 SF-CAS             426:       -20.5061920206    16.0264   240.0000
 SF-CAS             427:       -20.5056938831    16.0400   240.0000
 SF-CAS             428:       -20.5055198650    16.0447   240.0000
 SF-CAS             429:       -20.5053075991    16.0505   240.0000
 SF-CAS             430:       -20.5050167680    16.0584   240.0000
 SF-CAS             431:       -20.5046443424    16.0686   240.0000
 SF-CAS             432:       -20.5043538200    16.0765   240.0000
 SF-CAS             433:       -20.5042039355    16.0805   240.0000
 SF-CAS             434:       -20.5040062912    16.0859   240.0000
 SF-CAS             435:       -20.5037568001    16.0927   240.0000
 SF-CAS             436:       -20.5036524297    16.0955   240.0000
 SF-CAS             437:       -20.5032456585    16.1066   240.0000
 SF-CAS             438:       -20.5031024068    16.1105   240.0000
 SF-CAS             439:       -20.5024777047    16.1275   240.0000
 SF-CAS             440:       -20.5022552294    16.1336   240.0000
 SF-CAS             441:       -20.5021374668    16.1368   240.0000
 SF-CAS             442:       -20.5017301614    16.1479   240.0000
 SF-CAS             443:       -20.5012926509    16.1598   240.0000
 SF-CAS             444:       -20.5012285901    16.1615   240.0000
 SF-CAS             445:       -20.5009495250    16.1691   240.0000
 SF-CAS             446:       -20.5004466743    16.1828   240.0000
 SF-CAS             447:       -20.5002526478    16.1881   240.0000
 SF-CAS             448:       -20.4999326491    16.1968   240.0000
 SF-CAS             449:       -20.4994420858    16.2101   240.0000
 SF-CAS             450:       -20.4994065191    16.2111   240.0000
 SF-CAS             451:       -20.4992457379    16.2155   240.0000
 SF-CAS             452:       -20.4990548087    16.2207   240.0000
 SF-CAS             453:       -20.4988459760    16.2263   240.0000
 SF-CAS             454:       -20.4986639813    16.2313   240.0000
 SF-CAS             455:       -20.4985998831    16.2330   240.0000
 SF-CAS             456:       -20.4981042145    16.2465   240.0000
[...]
 J(12,21) =             0.027029  : J'(12,21) =            -0.013515  (cm-1)
 J(12,22) =            -0.014764  : J'(12,22) =             0.007382  (cm-1)
 J(12,23) =             0.106434  : J'(12,23) =            -0.053217  (cm-1)
 J(12,24) =            -0.489676  : J'(12,24) =             0.244838  (cm-1)
 J(12,25) =             2.707123  : J'(12,25) =            -1.353562  (cm-1)
 J(12,26) =            16.461982  : J'(12,26) =            -8.230991  (cm-1)
 J(12,27) =             1.069675  : J'(12,27) =            -0.534837  (cm-1)
 J(12,28) =            33.243701  : J'(12,28) =           -16.621850  (cm-1)
 J(12,29) =            39.692373  : J'(12,29) =           -19.846187  (cm-1)
 J(12,30) =           653.901392  : J'(12,30) =          -326.950696  (cm-1)
 J(12,31) =            27.399990  : J'(12,31) =           -13.699995  (cm-1)
 J(13,14) =          6493.862366  : J'(13,14) =         -3246.931183  (cm-1)
 J(13,15) =          6466.601342  : J'(13,15) =         -3233.300671  (cm-1)
 J(13,16) =            -0.512222  : J'(13,16) =             0.256111  (cm-1)
 J(13,17) =            -0.125012  : J'(13,17) =             0.062506  (cm-1)
 J(13,18) =             0.006154  : J'(13,18) =            -0.003077  (cm-1)
 J(13,19) =             0.010128  : J'(13,19) =            -0.005064  (cm-1)
 J(13,20) =            -0.003261  : J'(13,20) =             0.001631  (cm-1)
 J(13,21) =            -0.011254  : J'(13,21) =             0.005627  (cm-1)
 J(13,22) =            -0.006189  : J'(13,22) =             0.003094  (cm-1)
 J(13,23) =             0.008582  : J'(13,23) =            -0.004291  (cm-1)
 J(13,24) =            -0.093617  : J'(13,24) =             0.046808  (cm-1)
 J(13,25) =             0.303704  : J'(13,25) =            -0.151852  (cm-1)
 J(13,26) =             1.281027  : J'(13,26) =            -0.640513  (cm-1)
 J(13,27) =             0.107404  : J'(13,27) =            -0.053702  (cm-1)
 J(13,28) =            -0.344938  : J'(13,28) =             0.172469  (cm-1)
 J(13,29) =            17.689345  : J'(13,29) =            -8.844672  (cm-1)
 J(13,30) =           -17.200646  : J'(13,30) =             8.600323  (cm-1)
 J(13,31) =            -0.437713  : J'(13,31) =             0.218856  (cm-1)
 J(14,15) =          6360.778976  : J'(14,15) =         -3180.389488  (cm-1)
 J(14,16) =             0.116897  : J'(14,16) =            -0.058449  (cm-1)
 J(14,17) =            -0.013474  : J'(14,17) =             0.006737  (cm-1)
 J(14,18) =            -0.100372  : J'(14,18) =             0.050186  (cm-1)
 J(14,19) =             0.642765  : J'(14,19) =            -0.321382  (cm-1)
 J(14,20) =            -0.001732  : J'(14,20) =             0.000866  (cm-1)
 J(14,21) =            -0.014238  : J'(14,21) =             0.007119  (cm-1)
 J(14,22) =            -0.005190  : J'(14,22) =             0.002595  (cm-1)
 J(14,23) =             0.004867  : J'(14,23) =            -0.002434  (cm-1)
 J(14,24) =            -0.034966  : J'(14,24) =             0.017483  (cm-1)
 J(14,25) =             0.264229  : J'(14,25) =            -0.132114  (cm-1)
 J(14,26) =             1.294975  : J'(14,26) =            -0.647488  (cm-1)
 J(14,27) =             0.048625  : J'(14,27) =            -0.024312  (cm-1)
 J(14,28) =            -3.958437  : J'(14,28) =             1.979218  (cm-1)
 J(14,29) =            -3.433602  : J'(14,29) =             1.716801  (cm-1)
 J(14,30) =           -23.636516  : J'(14,30) =            11.818258  (cm-1)
 J(14,31) =            -4.229310  : J'(14,31) =             2.114655  (cm-1)
 J(15,16) =             0.815839  : J'(15,16) =            -0.407919  (cm-1)
 J(15,17) =             0.543926  : J'(15,17) =            -0.271963  (cm-1)
 J(15,18) =            -0.081014  : J'(15,18) =             0.040507  (cm-1)
 J(15,19) =             7.161297  : J'(15,19) =            -3.580648  (cm-1)
 J(15,20) =             0.004903  : J'(15,20) =            -0.002451  (cm-1)
 J(15,21) =             0.087659  : J'(15,21) =            -0.043830  (cm-1)
 J(15,22) =             0.012675  : J'(15,22) =            -0.006337  (cm-1)
 J(15,23) =             0.019683  : J'(15,23) =            -0.009842  (cm-1)
 J(15,24) =            -0.237973  : J'(15,24) =             0.118987  (cm-1)
 J(15,25) =             0.386343  : J'(15,25) =            -0.193172  (cm-1)
 J(15,26) =             1.743884  : J'(15,26) =            -0.871942  (cm-1)
 J(15,27) =             0.296263  : J'(15,27) =            -0.148131  (cm-1)
 J(15,28) =            29.730356  : J'(15,28) =           -14.865178  (cm-1)
 J(15,29) =            46.594533  : J'(15,29) =           -23.297267  (cm-1)
 J(15,30) =           739.757606  : J'(15,30) =          -369.878803  (cm-1)
 J(15,31) =            37.127945  : J'(15,31) =           -18.563972  (cm-1)
 J(16,17) =          6327.737167  : J'(16,17) =         -3163.868584  (cm-1)
 J(16,18) =          6547.477536  : J'(16,18) =         -3273.738768  (cm-1)
 J(16,19) =          5991.273072  : J'(16,19) =         -2995.636536  (cm-1)
 J(16,20) =           -30.385906  : J'(16,20) =            15.192953  (cm-1)
 J(16,21) =           825.099146  : J'(16,21) =          -412.549573  (cm-1)
 J(16,22) =            -6.874662  : J'(16,22) =             3.437331  (cm-1)
 J(16,23) =           477.070308  : J'(16,23) =          -238.535154  (cm-1)
 J(16,24) =             3.738615  : J'(16,24) =            -1.869308  (cm-1)
 J(16,25) =             3.749714  : J'(16,25) =            -1.874857  (cm-1)
 J(16,26) =            88.944323  : J'(16,26) =           -44.472162  (cm-1)
 J(16,27) =             2.262492  : J'(16,27) =            -1.131246  (cm-1)
 J(16,28) =           166.056456  : J'(16,28) =           -83.028228  (cm-1)
 J(16,29) =           -22.549869  : J'(16,29) =            11.274935  (cm-1)
 J(16,30) =           862.273448  : J'(16,30) =          -431.136724  (cm-1)
 J(16,31) =            46.016110  : J'(16,31) =           -23.008055  (cm-1)
 J(17,18) =          6481.299393  : J'(17,18) =         -3240.649696  (cm-1)
 J(17,19) =          6244.298572  : J'(17,19) =         -3122.149286  (cm-1)
 J(17,20) =            -3.151332  : J'(17,20) =             1.575666  (cm-1)
 J(17,21) =            67.060812  : J'(17,21) =           -33.530406  (cm-1)
 J(17,22) =            63.902762  : J'(17,22) =           -31.951381  (cm-1)
 J(17,23) =             0.885960  : J'(17,23) =            -0.442980  (cm-1)
 J(17,24) =             0.435527  : J'(17,24) =            -0.217764  (cm-1)
 J(17,25) =             0.183311  : J'(17,25) =            -0.091656  (cm-1)
 J(17,26) =             3.973426  : J'(17,26) =            -1.986713  (cm-1)
 J(17,27) =            -0.029121  : J'(17,27) =             0.014560  (cm-1)
 J(17,28) =             6.328845  : J'(17,28) =            -3.164423  (cm-1)
 J(17,29) =            -7.059318  : J'(17,29) =             3.529659  (cm-1)
 J(17,30) =             3.387772  : J'(17,30) =            -1.693886  (cm-1)
 J(17,31) =           -21.234002  : J'(17,31) =            10.617001  (cm-1)
 J(18,19) =          6522.055233  : J'(18,19) =         -3261.027617  (cm-1)
 J(18,20) =            -0.852046  : J'(18,20) =             0.426023  (cm-1)
 J(18,21) =            16.664707  : J'(18,21) =            -8.332354  (cm-1)
 J(18,22) =             8.955073  : J'(18,22) =            -4.477536  (cm-1)
 J(18,23) =            78.413545  : J'(18,23) =           -39.206772  (cm-1)
 J(18,24) =             0.466097  : J'(18,24) =            -0.233049  (cm-1)
 J(18,25) =             0.483444  : J'(18,25) =            -0.241722  (cm-1)
 J(18,26) =             5.106559  : J'(18,26) =            -2.553280  (cm-1)
 J(18,27) =             0.267824  : J'(18,27) =            -0.133912  (cm-1)
 J(18,28) =            25.459719  : J'(18,28) =           -12.729860  (cm-1)
 J(18,29) =             1.697739  : J'(18,29) =            -0.848869  (cm-1)
 J(18,30) =           -26.859418  : J'(18,30) =            13.429709  (cm-1)
 J(18,31) =           144.846311  : J'(18,31) =           -72.423156  (cm-1)
 J(19,20) =            -5.287140  : J'(19,20) =             2.643570  (cm-1)
 J(19,21) =            29.272829  : J'(19,21) =           -14.636415  (cm-1)
 J(19,22) =            -0.462002  : J'(19,22) =             0.231001  (cm-1)
 J(19,23) =            13.337209  : J'(19,23) =            -6.668605  (cm-1)
 J(19,24) =             0.343588  : J'(19,24) =            -0.171794  (cm-1)
 J(19,25) =             0.528155  : J'(19,25) =            -0.264078  (cm-1)
 J(19,26) =             5.473724  : J'(19,26) =            -2.736862  (cm-1)
 J(19,27) =             0.670431  : J'(19,27) =            -0.335216  (cm-1)
 J(19,28) =           -25.309251  : J'(19,28) =            12.654626  (cm-1)
 J(19,29) =             5.454022  : J'(19,29) =            -2.727011  (cm-1)
 J(19,30) =           324.916793  : J'(19,30) =          -162.458396  (cm-1)
 J(19,31) =           401.059625  : J'(19,31) =          -200.529813  (cm-1)
 J(20,21) =          6601.152217  : J'(20,21) =         -3300.576108  (cm-1)
 J(20,22) =          6280.340388  : J'(20,22) =         -3140.170194  (cm-1)
 J(20,23) =          6459.403878  : J'(20,23) =         -3229.701939  (cm-1)
 J(20,24) =           180.800653  : J'(20,24) =           -90.400327  (cm-1)
 J(20,25) =             0.187746  : J'(20,25) =            -0.093873  (cm-1)
 J(20,26) =             0.729677  : J'(20,26) =            -0.364839  (cm-1)
 J(20,27) =            11.249899  : J'(20,27) =            -5.624949  (cm-1)
 J(20,28) =             0.318864  : J'(20,28) =            -0.159432  (cm-1)
 J(20,29) =             0.068920  : J'(20,29) =            -0.034460  (cm-1)
 J(20,30) =            -0.531434  : J'(20,30) =             0.265717  (cm-1)
 J(20,31) =             0.046258  : J'(20,31) =            -0.023129  (cm-1)
 J(21,22) =          6627.712998  : J'(21,22) =         -3313.856499  (cm-1)
 J(21,23) =          5872.554897  : J'(21,23) =         -2936.277448  (cm-1)
 J(21,24) =            31.422041  : J'(21,24) =           -15.711021  (cm-1)
 J(21,25) =            28.787305  : J'(21,25) =           -14.393653  (cm-1)
 J(21,26) =           729.350125  : J'(21,26) =          -364.675063  (cm-1)
 J(21,27) =             1.086881  : J'(21,27) =            -0.543440  (cm-1)
 J(21,28) =            -0.903074  : J'(21,28) =             0.451537  (cm-1)
 J(21,29) =            -0.535297  : J'(21,29) =             0.267648  (cm-1)
 J(21,30) =             1.360668  : J'(21,30) =            -0.680334  (cm-1)
 J(21,31) =             0.791177  : J'(21,31) =            -0.395588  (cm-1)
 J(22,23) =          6465.666560  : J'(22,23) =         -3232.833280  (cm-1)
 J(22,24) =            -2.427921  : J'(22,24) =             1.213961  (cm-1)
 J(22,25) =            -4.184151  : J'(22,25) =             2.092075  (cm-1)
 J(22,26) =           -24.976899  : J'(22,26) =            12.488450  (cm-1)
 J(22,27) =            12.315635  : J'(22,27) =            -6.157817  (cm-1)
 J(22,28) =            -0.200044  : J'(22,28) =             0.100022  (cm-1)
 J(22,29) =             0.004731  : J'(22,29) =            -0.002365  (cm-1)
 J(22,30) =            -0.317203  : J'(22,30) =             0.158602  (cm-1)
 J(22,31) =             0.153780  : J'(22,31) =            -0.076890  (cm-1)
 J(23,24) =            -2.296839  : J'(23,24) =             1.148420  (cm-1)
 J(23,25) =           -12.255791  : J'(23,25) =             6.127895  (cm-1)
 J(23,26) =           362.111476  : J'(23,26) =          -181.055738  (cm-1)
 J(23,27) =           345.768864  : J'(23,27) =          -172.884432  (cm-1)
 J(23,28) =             4.418732  : J'(23,28) =            -2.209366  (cm-1)
 J(23,29) =             0.320990  : J'(23,29) =            -0.160495  (cm-1)
 J(23,30) =             0.616263  : J'(23,30) =            -0.308131  (cm-1)
 J(23,31) =             1.034489  : J'(23,31) =            -0.517245  (cm-1)
 J(24,25) =          6357.885573  : J'(24,25) =         -3178.942787  (cm-1)
 J(24,26) =          6406.839300  : J'(24,26) =         -3203.419650  (cm-1)
 J(24,27) =          6552.536822  : J'(24,27) =         -3276.268411  (cm-1)
 J(24,28) =           -59.166289  : J'(24,28) =            29.583145  (cm-1)
 J(24,29) =            -7.375958  : J'(24,29) =             3.687979  (cm-1)
 J(24,30) =             2.607024  : J'(24,30) =            -1.303512  (cm-1)
 J(24,31) =            -8.691859  : J'(24,31) =             4.345929  (cm-1)
 J(25,26) =          6122.279280  : J'(25,26) =         -3061.139640  (cm-1)
 J(25,27) =          6417.668368  : J'(25,27) =         -3208.834184  (cm-1)
 J(25,28) =           130.094342  : J'(25,28) =           -65.047171  (cm-1)
 J(25,29) =            17.628875  : J'(25,29) =            -8.814438  (cm-1)
 J(25,30) =            12.443959  : J'(25,30) =            -6.221980  (cm-1)
 J(25,31) =             6.133834  : J'(25,31) =            -3.066917  (cm-1)
 J(26,27) =          6224.646401  : J'(26,27) =         -3112.323200  (cm-1)
 J(26,28) =           588.998159  : J'(26,28) =          -294.499080  (cm-1)
 J(26,29) =            11.056775  : J'(26,29) =            -5.528388  (cm-1)
 J(26,30) =           178.947456  : J'(26,30) =           -89.473728  (cm-1)
 J(26,31) =            12.310126  : J'(26,31) =            -6.155063  (cm-1)
 J(27,28) =           514.318889  : J'(27,28) =          -257.159445  (cm-1)
 J(27,29) =            28.614649  : J'(27,29) =           -14.307324  (cm-1)
 J(27,30) =            18.661023  : J'(27,30) =            -9.330511  (cm-1)
 J(27,31) =            32.586022  : J'(27,31) =           -16.293011  (cm-1)
 J(28,29) =          6422.130220  : J'(28,29) =         -3211.065110  (cm-1)
 J(28,30) =          6184.993223  : J'(28,30) =         -3092.496611  (cm-1)
 J(28,31) =          6465.843755  : J'(28,31) =         -3232.921878  (cm-1)
 J(29,30) =          6551.895249  : J'(29,30) =         -3275.947625  (cm-1)
 J(29,31) =          6353.994278  : J'(29,31) =         -3176.997139  (cm-1)
 J(30,31) =          6249.990532  : J'(30,31) =         -3124.995266  (cm-1)
 Analysis of SCF Wavefunction

 --------------------------------------------------------------

                    Orbital Energies (a.u.)
 --------------------------------------------------------------

 Alpha MOs
 -- Occupied --
 -0.914  -0.914  -0.517  -0.517  -0.517  -0.520  -0.518  -0.517
 -0.518  -0.517  -0.517  -0.518  -0.522  -0.516  -0.520  -0.521
 -0.517  -0.521  -0.519  -0.520  -0.517  -0.518  -0.517  -0.519
 -0.520  -0.517  -0.517  -0.519  -0.519  -0.521  -0.519  -0.518
 -0.518  -0.522
 -- Virtual --
  0.902   0.760   1.017   1.012   0.998   1.048   0.960   0.967
  1.020   1.112   1.120   1.017   1.037   1.012   1.010   1.060
  1.095   0.958   1.159   0.989   1.000   0.958   0.989   0.978
  1.045   1.024   1.010   0.982   1.073   0.993   1.023   1.028
  0.979   0.994

 Beta MOs
 -- Occupied --
 -0.914  -0.914
 -- Virtual --
  0.146   0.147   0.147   0.148   0.149   0.147   0.147   0.147
  0.147   0.146   0.150   0.150   0.154   0.150   0.146   0.147
  0.149   0.147   0.147   0.148   0.150   0.155   0.154   0.150
  0.146   0.153   0.147   0.152   0.148   0.146   0.146   0.151
  1.079   0.957   1.183   1.173   1.167   1.206   1.128   1.136
  1.173   1.238   1.259   1.171   1.189   1.171   1.180   1.229
  1.253   1.128   1.265   1.150   1.169   1.125   1.157   1.145
  1.200   1.185   1.177   1.146   1.236   1.163   1.194   1.197
  1.154   1.165
 --------------------------------------------------------------

          Ground-State Mulliken Net Atomic Charges

     Atom                 Charge (a.u.)
  ----------------------------------------
      1 H                     0.000021
      2 H                     0.000082
      3 H                     0.000056
      4 H                     0.000008
      5 H                     0.000033
      6 H                    -0.000068
      7 H                     0.000012
      8 H                    -0.000111
      9 H                     0.000037
     10 H                     0.000061
     11 H                    -0.000040
     12 H                    -0.000004
     13 H                    -0.000034
     14 H                     0.000134
     15 H                    -0.000040
     16 H                    -0.000033
     17 H                    -0.000059
     18 H                    -0.000007
     19 H                     0.000044
     20 H                    -0.000089
     21 H                     0.000038
     22 H                     0.000005
     23 H                     0.000081
     24 H                    -0.000059
     25 H                    -0.000001
     26 H                    -0.000036
     27 H                    -0.000116
     28 H                    -0.000060
     29 H                     0.000054
     30 H                     0.000088
     31 H                    -0.000047
     32 H                     0.000048
     33 He                    0.000000
     34 He                   -0.000000
  ----------------------------------------
  Sum of atomic charges =    -0.000000

 -----------------------------------------------------------------
                    Cartesian Multipole Moments
 -----------------------------------------------------------------
    Charge (ESU x 10^10)
                 0.0000
    Dipole Moment (Debye)
         X      -0.0039      Y      -0.0011      Z      -0.0022
       Tot       0.0046
    Quadrupole Moments (Debye-Ang)
        XX     -49.1407     XY      -0.0900     YY     -49.2805
        XZ       0.0085     YZ      -0.1034     ZZ     -49.2224
    Octopole Moments (Debye-Ang^2)
       XXX      17.6685    XXY     -32.6059    XYY       8.7719
       YYY     -98.7355    XXZ    -114.8238    XYZ      -0.1011
       YYZ    -113.8828    XZZ       9.4070    YZZ     -33.8540
       ZZZ    -346.8909
    Hexadecapole Moments (Debye-Ang^3)
      XXXX   -2477.8362   XXXY     -13.1329   XXYY    -786.9872
      XYYY      -7.2787   YYYY   -2374.6244   XXXZ      45.5354
      XXYZ    -238.4416   XYYZ      16.5129   YYYZ    -724.0420
      XXZZ   -1023.3900   XYZZ       3.0504   YYZZ    -995.4746
      XZZZ      63.5503   YZZZ    -719.3811   ZZZZ   -3728.2460
 -----------------------------------------------------------------
 JobOver = TRUE
Archival summary:
1\1\sinatra\SP\ROProcedureUnspecified\6-31G*\e232(w)\nmayhall\SatMar2521:31:182017SatMar2521:31:182017\0\\#,ROProcedureUnspecified,6-31G*,\\0,33\H\H,1,1.79576\H,1,1.79583,2,60.0218\H,1,1.79618,2,60.0194,3,-70.5199,0\H,1,2.58973,2,82.2224,3,-165.943,0\H,5,1.79527,1,134.397,2,92.3416,0\H,5,1.7954,1,150.634,2,-16.0416,0\H,7,1.79583,5,60.0199,1,-160.951,0\H,1,2.66334,2,161.573,3,-73.0033,0\H,9,1.79487,1,134.374,2,72.5749,0\H,9,1.79523,1,92.963,2,22.9981,0\H,10,1.79622,9,60.025,1,9.20361,0\H,9,2.5452,1,82.981,2,-99.976,0\H,13,1.79556,9,103.238,1,115.117,0\H,13,1.79579,9,90.303,1,174.33,0\H,13,1.79592,9,150.034,1,166.818,0\H,9,2.61944,1,75.8789,2,159.142,0\H,17,1.79548,9,101.096,1,177.581,0\H,17,1.79571,9,126.937,1,-121.718,0\H,17,1.79594,9,155.415,1,140.229,0\H,17,2.60553,9,112.497,1,23.8334,0\H,21,1.79548,17,140.368,9,-109.832,0\H,21,1.79585,17,86.7958,9,-78.3081,0\H,23,1.7954,21,60.0211,17,-86.79,0\H,13,2.62022,9,113.364,1,-92.0266,0\H,25,1.79532,13,101.536,9,-7.78023,0\H,25,1.79565,13,161.353,9,-15.6816,0\H,25,1.79579,13,109.971,9,-69.8406,0\H,21,2.67395,17,109.852,9,89.177,0\H,29,1.79602,21,71.5539,17,-95.9295,0\H,30,1.79587,29,60.0056,21,-120.579,0\H,31,1.79589,30,60.0093,29,-70.5417,0\He,19,12.2223,17,149.32,9,-93.788,0\He,11,12.2581,9,144,1,166.453,0\\HF=-21.0285289\\@

 Total job time:  5.00s(wall), 4.98s(cpu) 
 Sat Mar 25 21:31:18 2017

        *************************************************************
        *                                                           *
        *  Thank you very much for using Q-Chem.  Have a nice day.  *
        *                                                           *
        *************************************************************


*** MISSION COMPLETED -- STARFLEET OUT ***

