Jobname.Temp
SP        RO                            6-31G(d)            
Number of atoms                            I               26
Charge                                     I                0
Multiplicity                               I               25
Number of electrons                        I               28
Number of alpha electrons                  I               26
Number of beta electrons                   I                2
Atomic numbers                             I   N=          26
           1           1           1           1           1           1
           1           1           1           1           1           1
           1           1           1           1           1           1
           1           1           1           1           1           1
           2           2
Current cartesian coordinates              R   N=          78
 -5.38095735E+00  6.37355489E+00 -5.25381657E-01 -4.88055787E+00  3.10612393E+00
  3.50903244E-01 -7.92827037E+00  4.10741422E+00 -8.34238495E-01 -6.88640766E+00
  5.09906690E+00  2.27437988E+00  1.72305228E+00 -1.30546060E+00 -1.03764862E-01
 -1.46041814E+00 -6.58758527E-02 -2.60366466E-01 -8.62565490E-01 -3.02981679E+00
  1.33522379E+00 -6.20548265E-01 -2.83944578E+00 -2.07552400E+00  2.02453919E+00
  3.92099274E+00  6.19924655E-01 -3.32365031E-01  4.68544365E+00 -1.74000312E+00
  2.09498818E+00  6.96311165E+00 -9.48207878E-01 -3.86619068E-01  6.25416199E+00
  1.30003709E+00 -5.95685138E+00 -3.44183378E+00 -1.38549050E+00 -6.21988236E+00
 -1.72686953E+00  1.56439088E+00 -8.62034477E+00 -4.00376274E+00  6.90127981E-01
 -8.36929465E+00 -1.04252411E+00 -1.00894368E+00 -9.48264570E-02  1.65997322E+00
  4.62087170E+00 -2.55659158E+00  3.96576035E+00  5.20714034E+00 -1.82885805E+00
  1.59944529E+00  7.57113103E+00 -3.37612800E+00  6.89069734E-01  4.65791034E+00
 -1.61987323E+00  1.35561393E+00 -5.39677435E+00 -4.74650070E+00  6.38141615E-01
 -4.20620910E+00 -4.29759626E+00  1.31691234E+00 -7.52967044E+00 -3.99013782E+00
  3.81924988E+00 -5.21341423E+00  1.88972612E+01  1.88972612E+01  1.88972612E+01
 -1.88972612E+01  1.88972612E+01  1.88972612E+01
Nuclear charges                            R   N=          26
  1.00000000E+00  1.00000000E+00  1.00000000E+00  1.00000000E+00  1.00000000E+00
  1.00000000E+00  1.00000000E+00  1.00000000E+00  1.00000000E+00  1.00000000E+00
  1.00000000E+00  1.00000000E+00  1.00000000E+00  1.00000000E+00  1.00000000E+00
  1.00000000E+00  1.00000000E+00  1.00000000E+00  1.00000000E+00  1.00000000E+00
  1.00000000E+00  1.00000000E+00  1.00000000E+00  1.00000000E+00  2.00000000E+00
  2.00000000E+00
Number of basis functions                  I               52
Number of contracted shells                I               52
Number of primitive shells                 I              104
Highest angular momentum                   I                0
Largest degree of contraction              I                3
Shell types                                I   N=          52
           0           0           0           0           0           0
           0           0           0           0           0           0
           0           0           0           0           0           0
           0           0           0           0           0           0
           0           0           0           0           0           0
           0           0           0           0           0           0
           0           0           0           0           0           0
           0           0           0           0           0           0
           0           0           0           0
Number of primitives per shell             I   N=          52
           3           1           3           1           3           1
           3           1           3           1           3           1
           3           1           3           1           3           1
           3           1           3           1           3           1
           3           1           3           1           3           1
           3           1           3           1           3           1
           3           1           3           1           3           1
           3           1           3           1           3           1
           3           1           3           1
Shell to atom map                          I   N=          52
           1           1           2           2           3           3
           4           4           5           5           6           6
           7           7           8           8           9           9
          10          10          11          11          12          12
          13          13          14          14          15          15
          16          16          17          17          18          18
          19          19          20          20          21          21
          22          22          23          23          24          24
          25          25          26          26
Primitive exponents                        R   N=         104
  1.87311370E+01  2.82539370E+00  6.40121700E-01  1.61277800E-01  1.87311370E+01
  2.82539370E+00  6.40121700E-01  1.61277800E-01  1.87311370E+01  2.82539370E+00
  6.40121700E-01  1.61277800E-01  1.87311370E+01  2.82539370E+00  6.40121700E-01
  1.61277800E-01  1.87311370E+01  2.82539370E+00  6.40121700E-01  1.61277800E-01
  1.87311370E+01  2.82539370E+00  6.40121700E-01  1.61277800E-01  1.87311370E+01
  2.82539370E+00  6.40121700E-01  1.61277800E-01  1.87311370E+01  2.82539370E+00
  6.40121700E-01  1.61277800E-01  1.87311370E+01  2.82539370E+00  6.40121700E-01
  1.61277800E-01  1.87311370E+01  2.82539370E+00  6.40121700E-01  1.61277800E-01
  1.87311370E+01  2.82539370E+00  6.40121700E-01  1.61277800E-01  1.87311370E+01
  2.82539370E+00  6.40121700E-01  1.61277800E-01  1.87311370E+01  2.82539370E+00
  6.40121700E-01  1.61277800E-01  1.87311370E+01  2.82539370E+00  6.40121700E-01
  1.61277800E-01  1.87311370E+01  2.82539370E+00  6.40121700E-01  1.61277800E-01
  1.87311370E+01  2.82539370E+00  6.40121700E-01  1.61277800E-01  1.87311370E+01
  2.82539370E+00  6.40121700E-01  1.61277800E-01  1.87311370E+01  2.82539370E+00
  6.40121700E-01  1.61277800E-01  1.87311370E+01  2.82539370E+00  6.40121700E-01
  1.61277800E-01  1.87311370E+01  2.82539370E+00  6.40121700E-01  1.61277800E-01
  1.87311370E+01  2.82539370E+00  6.40121700E-01  1.61277800E-01  1.87311370E+01
  2.82539370E+00  6.40121700E-01  1.61277800E-01  1.87311370E+01  2.82539370E+00
  6.40121700E-01  1.61277800E-01  1.87311370E+01  2.82539370E+00  6.40121700E-01
  1.61277800E-01  3.84216340E+01  5.77803000E+00  1.24177400E+00  2.97964000E-01
  3.84216340E+01  5.77803000E+00  1.24177400E+00  2.97964000E-01
Contraction coefficients                   R   N=         104
  3.34945995E-02  2.34726947E-01  8.13757318E-01  1.00000000E+00  3.34945995E-02
  2.34726947E-01  8.13757318E-01  1.00000000E+00  3.34945995E-02  2.34726947E-01
  8.13757318E-01  1.00000000E+00  3.34945995E-02  2.34726947E-01  8.13757318E-01
  1.00000000E+00  3.34945995E-02  2.34726947E-01  8.13757318E-01  1.00000000E+00
  3.34945995E-02  2.34726947E-01  8.13757318E-01  1.00000000E+00  3.34945995E-02
  2.34726947E-01  8.13757318E-01  1.00000000E+00  3.34945995E-02  2.34726947E-01
  8.13757318E-01  1.00000000E+00  3.34945995E-02  2.34726947E-01  8.13757318E-01
  1.00000000E+00  3.34945995E-02  2.34726947E-01  8.13757318E-01  1.00000000E+00
  3.34945995E-02  2.34726947E-01  8.13757318E-01  1.00000000E+00  3.34945995E-02
  2.34726947E-01  8.13757318E-01  1.00000000E+00  3.34945995E-02  2.34726947E-01
  8.13757318E-01  1.00000000E+00  3.34945995E-02  2.34726947E-01  8.13757318E-01
  1.00000000E+00  3.34945995E-02  2.34726947E-01  8.13757318E-01  1.00000000E+00
  3.34945995E-02  2.34726947E-01  8.13757318E-01  1.00000000E+00  3.34945995E-02
  2.34726947E-01  8.13757318E-01  1.00000000E+00  3.34945995E-02  2.34726947E-01
  8.13757318E-01  1.00000000E+00  3.34945995E-02  2.34726947E-01  8.13757318E-01
  1.00000000E+00  3.34945995E-02  2.34726947E-01  8.13757318E-01  1.00000000E+00
  3.34945995E-02  2.34726947E-01  8.13757318E-01  1.00000000E+00  3.34945995E-02
  2.34726947E-01  8.13757318E-01  1.00000000E+00  3.34945995E-02  2.34726947E-01
  8.13757318E-01  1.00000000E+00  3.34945995E-02  2.34726947E-01  8.13757318E-01
  1.00000000E+00  4.01397393E-02  2.61246097E-01  7.93184625E-01  1.00000000E+00
  4.01397393E-02  2.61246097E-01  7.93184625E-01  1.00000000E+00
Coordinates of each shell                  R   N=         156
 -5.38095735E+00  6.37355489E+00 -5.25381657E-01 -5.38095735E+00  6.37355489E+00
 -5.25381657E-01 -4.88055787E+00  3.10612393E+00  3.50903244E-01 -4.88055787E+00
  3.10612393E+00  3.50903244E-01 -7.92827037E+00  4.10741422E+00 -8.34238495E-01
 -7.92827037E+00  4.10741422E+00 -8.34238495E-01 -6.88640766E+00  5.09906690E+00
  2.27437988E+00 -6.88640766E+00  5.09906690E+00  2.27437988E+00  1.72305228E+00
 -1.30546060E+00 -1.03764862E-01  1.72305228E+00 -1.30546060E+00 -1.03764862E-01
 -1.46041814E+00 -6.58758527E-02 -2.60366466E-01 -1.46041814E+00 -6.58758527E-02
 -2.60366466E-01 -8.62565490E-01 -3.02981679E+00  1.33522379E+00 -8.62565490E-01
 -3.02981679E+00  1.33522379E+00 -6.20548265E-01 -2.83944578E+00 -2.07552400E+00
 -6.20548265E-01 -2.83944578E+00 -2.07552400E+00  2.02453919E+00  3.92099274E+00
  6.19924655E-01  2.02453919E+00  3.92099274E+00  6.19924655E-01 -3.32365031E-01
  4.68544365E+00 -1.74000312E+00 -3.32365031E-01  4.68544365E+00 -1.74000312E+00
  2.09498818E+00  6.96311165E+00 -9.48207878E-01  2.09498818E+00  6.96311165E+00
 -9.48207878E-01 -3.86619068E-01  6.25416199E+00  1.30003709E+00 -3.86619068E-01
  6.25416199E+00  1.30003709E+00 -5.95685138E+00 -3.44183378E+00 -1.38549050E+00
 -5.95685138E+00 -3.44183378E+00 -1.38549050E+00 -6.21988236E+00 -1.72686953E+00
  1.56439088E+00 -6.21988236E+00 -1.72686953E+00  1.56439088E+00 -8.62034477E+00
 -4.00376274E+00  6.90127981E-01 -8.62034477E+00 -4.00376274E+00  6.90127981E-01
 -8.36929465E+00 -1.04252411E+00 -1.00894368E+00 -8.36929465E+00 -1.04252411E+00
 -1.00894368E+00 -9.48264570E-02  1.65997322E+00  4.62087170E+00 -9.48264570E-02
  1.65997322E+00  4.62087170E+00 -2.55659158E+00  3.96576035E+00  5.20714034E+00
 -2.55659158E+00  3.96576035E+00  5.20714034E+00 -1.82885805E+00  1.59944529E+00
  7.57113103E+00 -1.82885805E+00  1.59944529E+00  7.57113103E+00 -3.37612800E+00
  6.89069734E-01  4.65791034E+00 -3.37612800E+00  6.89069734E-01  4.65791034E+00
 -1.61987323E+00  1.35561393E+00 -5.39677435E+00 -1.61987323E+00  1.35561393E+00
 -5.39677435E+00 -4.74650070E+00  6.38141615E-01 -4.20620910E+00 -4.74650070E+00
  6.38141615E-01 -4.20620910E+00 -4.29759626E+00  1.31691234E+00 -7.52967044E+00
 -4.29759626E+00  1.31691234E+00 -7.52967044E+00 -3.99013782E+00  3.81924988E+00
 -5.21341423E+00 -3.99013782E+00  3.81924988E+00 -5.21341423E+00  1.88972612E+01
  1.88972612E+01  1.88972612E+01  1.88972612E+01  1.88972612E+01  1.88972612E+01
 -1.88972612E+01  1.88972612E+01  1.88972612E+01 -1.88972612E+01  1.88972612E+01
  1.88972612E+01
SCF Energy                                 R     -1.720831954839932E+01
Number of independent functions            I               52
Alpha MO coefficients                      R   N=        2704
 -9.48637533E-23  2.40691848E-22 -3.59405323E-22  5.46494228E-22 -1.06129848E-22
  4.19947654E-22  9.64467688E-22 -1.71460850E-21 -4.83289055E-22  6.34982454E-22
 -9.14517533E-23 -9.36993746E-24  9.14251421E-23 -1.69414799E-22 -1.26513340E-22
 -3.77346186E-23 -3.16261522E-22  3.03519220E-22  3.32391669E-22 -7.81140541E-22
 -2.71555069E-23 -3.39508931E-22 -6.22605976E-22  1.06009858E-21  3.96834423E-22
 -1.09912377E-21 -7.33456860E-22  1.01353237E-21 -1.09072996E-21  1.42002897E-21
  2.21321445E-22 -5.09518510E-22  1.76521139E-22 -4.30966429E-22  2.54414627E-22
 -7.11399766E-22 -5.45671925E-22  8.75784591E-22 -6.17868357E-22  7.85610450E-22
 -2.70388848E-22  8.33724869E-22  2.81626017E-22 -4.16509536E-22 -3.99704740E-22
  5.69584589E-22  6.83719234E-22 -1.27399865E-21 -5.92081261E-01 -5.13586011E-01
 -8.30981548E-22  8.57799010E-22  3.30365145E-17 -4.23512213E-16 -1.81451889E-16
 -8.46030549E-17  2.06850597E-16  2.91150472E-16  7.69532308E-18  4.76728443E-16
  4.02126256E-17  1.28941291E-16 -2.71610467E-16 -1.89877348E-16  1.77271497E-16
 -2.01766559E-17  1.02990156E-16  6.97021307E-17  1.81207075E-16  5.80527422E-16
  7.38211596E-17 -1.81574028E-16 -2.43610081E-16 -3.35241645E-16  2.08288733E-17
 -1.55168882E-16  3.74210263E-17  2.49664972E-16  3.31918100E-16  7.35484210E-16
 -3.50526271E-16 -4.07555448E-16 -2.13601419E-17 -1.89669629E-16 -1.41503743E-16
  1.35972812E-16  7.49123203E-17  8.09323967E-17 -2.92426628E-16 -6.95878302E-16
 -1.09614128E-16  5.12593224E-19  3.80809766E-16  1.59125137E-16  6.36163934E-17
  3.41774536E-16  5.00347095E-17  6.22333146E-17  2.07131076E-16  1.06729772E-16
  6.42809784E-19 -6.63573442E-19 -5.92081261E-01 -5.13586011E-01 -5.14828685E-04
 -9.44532633E-04  3.17387636E-03  5.83813666E-03 -3.19381820E-04 -9.34366252E-04
 -7.35394850E-04 -6.78494967E-04  4.44781583E-01  7.24973699E-01 -1.74983858E-02
 -9.13624296E-02 -1.66198552E-02 -8.96030123E-02 -1.68723412E-02 -8.94845984E-02
 -1.01874824E-02 -2.16353250E-02 -1.42461258E-03  3.63897960E-03  1.41638318E-03
  3.10499635E-03  2.03082727E-03  2.99360582E-03  5.97979734E-03  3.18008459E-03
  4.39118577E-03  2.90984834E-03 -1.53189514E-03 -7.30069772E-04 -1.41833533E-03
 -7.53235740E-04 -4.60480749E-03 -7.49259929E-03  5.11339191E-04  5.31654538E-04
  3.82197438E-04  5.76295047E-04  2.27608090E-03  4.45658485E-03 -2.14781550E-04
  1.84267568E-03  3.73257382E-03  3.50564258E-03 -4.64109873E-04 -8.45975058E-04
 -2.31470622E-04 -9.30763741E-04 -2.75321421E-17 -2.29928660E-17  4.52375506E-17
  2.31842634E-17 -5.62299154E-04 -9.66046066E-04  5.10948591E-03  4.08656969E-03
 -1.41507617E-03 -7.47723609E-04  2.99910221E-03  2.18223700E-03  1.08804002E-03
 -7.61344931E-05  4.47186773E-03  3.61922191E-03  1.91619153E-03  1.89303021E-03
 -1.56384919E-03 -7.38000754E-04  3.60383212E-03  2.98064994E-03 -8.84634322E-04
 -1.15513780E-03 -1.56207137E-03 -8.87387372E-04  4.93368193E-03  4.26468190E-03
 -4.89987030E-04 -7.95942074E-04  2.95257462E-03  5.33943279E-03 -3.82032990E-04
 -7.68246621E-04 -4.10092992E-04 -8.24725047E-04 -1.71601092E-02 -9.03402618E-02
 -1.72504426E-02 -9.02888727E-02  4.43955992E-01  7.24554391E-01 -1.77839112E-02
 -9.11121337E-02 -1.21841565E-04  1.52523033E-06 -6.98863346E-04  2.23817837E-04
  1.73085075E-04 -1.28135020E-04  4.69850463E-05 -6.72850424E-05 -6.26472339E-17
 -3.69848013E-17  3.00660063E-16  2.49464864E-16 -2.14467373E-03 -8.77733979E-04
 -3.98506419E-03 -3.38613222E-03 -1.96722096E-03 -9.84794082E-04  1.72871984E-03
  6.42091264E-04  1.76857540E-04  1.08054232E-03 -4.80182994E-03 -4.49476019E-03
  1.29208325E-03  9.18357249E-04 -2.31722444E-03 -2.25943978E-03  7.82962807E-04
  8.13934513E-04 -6.61188897E-03 -6.26174074E-03  6.09305501E-04  9.58877871E-04
  1.24608035E-03  5.80859903E-04 -1.43969342E-03 -3.22604645E-03 -1.45496957E-04
  1.03411957E-03  7.33359516E-04  1.06694490E-03 -1.55671528E-03 -3.22941550E-03
  1.80397131E-04 -1.43214352E-05  2.54512194E-07  1.18124392E-04 -1.67943074E-04
  1.12474919E-04  6.14462707E-04 -2.22978711E-04  1.74184108E-02  9.02484889E-02
  1.77141518E-02  9.11943425E-02 -4.43999883E-01 -7.24443104E-01  1.71837410E-02
  9.00608589E-02 -4.02461807E-18 -3.65350147E-19  4.04690556E-17  4.70451511E-17
  1.65398154E-02  8.99418100E-02  1.76191690E-02  9.14595492E-02  1.68115877E-02
  8.95178314E-02 -4.44409953E-01 -7.25017353E-01  6.77395451E-04  7.08840370E-04
 -3.32589746E-03 -5.92751013E-03  1.46874620E-04  1.03129739E-03  3.94985930E-04
  8.55607638E-04  4.48737857E-04  8.85306609E-04 -3.74784027E-03 -4.09662584E-03
  4.10089984E-04  9.13399257E-04  5.62121181E-06 -1.61193275E-03 -1.56476772E-04
  8.99491526E-04  9.18751440E-04 -1.34557495E-03  4.66076149E-04  7.05629436E-04
 -1.65270418E-03 -3.74104409E-03 -2.33142922E-03 -3.23632145E-03  9.41375359E-03
  1.96943882E-02 -1.39960909E-03 -3.64376624E-03  4.01908862E-03  7.00359566E-04
  1.26746439E-03  8.32150677E-04 -4.51719803E-03 -3.06316113E-03  1.63459318E-03
  6.16813872E-04 -5.74966581E-03 -2.80424810E-03  2.49018395E-17  3.05634382E-17
  9.03608830E-17  9.37585082E-17 -2.52519530E-03 -3.60743422E-03 -4.46688600E-03
 -3.23807615E-03  1.30878716E-03  9.25640430E-04  1.83247978E-04  1.06448339E-03
 -2.81516978E-03 -2.03101222E-03 -5.44504233E-03 -4.75727181E-03  1.32743394E-03
  8.96765601E-04  1.06484088E-03  1.06727637E-03  1.73138623E-02  9.02714326E-02
  1.78445465E-02  9.11924262E-02 -4.43947315E-01 -7.24591746E-01  1.72571753E-02
  9.03751004E-02  4.24148476E-05  7.36159172E-08  5.18530704E-04 -1.27350865E-04
 -1.29321559E-04  1.07001544E-04  6.12952335E-05 -4.26828008E-05 -4.80283430E-03
 -4.06274430E-03 -3.98258091E-03 -3.17100693E-03  1.55053524E-03  8.79275354E-04
  9.83421748E-04  1.20638279E-03 -1.91372893E-03 -3.08124858E-03  1.94875301E-04
  8.68668776E-04  7.36109031E-04  1.07707892E-03 -1.54356339E-03 -3.20017859E-03
  1.04000722E-17  1.14468320E-17 -5.55422808E-17 -3.58661838E-17  1.53197521E-03
  6.98926175E-04 -4.27025938E-03 -3.74575835E-03 -3.09757632E-03 -2.62452999E-03
 -4.62698654E-05  1.13249554E-03  1.65065830E-03  7.49821259E-04 -3.34683118E-03
 -2.29624085E-03 -2.07856915E-03 -2.01530429E-03 -2.37373535E-03 -1.27765239E-03
  1.40551408E-05  1.81075830E-05  4.88126544E-04 -8.54412424E-05 -1.31245646E-04
  8.77048125E-05  5.17443860E-05 -1.09935774E-05  1.71982905E-02  9.02172103E-02
  1.76520937E-02  9.10852216E-02 -4.43972839E-01 -7.24496617E-01  1.74020396E-02
  9.03013077E-02  5.46804265E-04  7.33080200E-04  4.50922723E-04  7.45563973E-04
  3.93759648E-04  7.93513920E-04 -2.90912580E-03 -5.29754539E-03  9.90294389E-04
  7.52222103E-04 -6.74314232E-03 -6.38316206E-03  5.81619347E-04  9.48161344E-04
  1.01002823E-03  7.80030562E-04  2.08053906E-17 -5.12154094E-18 -2.30141531E-16
 -1.89171851E-16  2.00284118E-03  4.03198877E-03 -8.18649767E-03 -2.31449295E-02
  1.21187266E-03  4.14878860E-03 -3.72558498E-03 -8.67135230E-04  1.47042631E-03
  5.41923309E-03 -6.37956397E-03 -1.56914514E-02 -6.86245218E-03 -1.18841680E-02
  2.16275792E-03  4.51127971E-03  2.20776933E-03  3.01605024E-03  7.41653714E-05
  3.07708530E-04 -1.13632620E-03 -1.20529866E-03  2.78851421E-03  3.85722602E-03
  1.64120392E-03  5.69071321E-03 -1.46650276E-02 -3.90742650E-02  1.63459730E-03
  5.59444609E-03  1.32924709E-03  5.82055928E-03 -1.61197369E-02 -8.99318724E-02
 -1.60330608E-02 -8.99957879E-02 -1.60909956E-02 -9.01219256E-02  4.47284018E-01
  7.28233551E-01  3.92796136E-04  8.90145956E-05  8.27494864E-04  1.00642009E-03
 -4.03649819E-04 -9.40731527E-05  3.64439303E-04 -4.65350518E-05  4.51767153E-17
  1.82624687E-17  8.23343775E-17  5.51954970E-17  1.19541965E-04  5.51741402E-04
 -9.88809382E-05 -2.48465696E-03  6.33049996E-04  6.67356827E-04 -3.62578335E-03
 -2.27968293E-03  5.70231884E-03  5.01513991E-03  6.94104266E-03  1.58393563E-02
  5.33955337E-03  5.98574591E-03 -3.69134458E-03 -5.23482533E-03  1.16742347E-02
  2.89425142E-02 -9.01418199E-04 -5.42718759E-03 -2.84670620E-03 -5.78207429E-03
  4.69276978E-03  5.12094357E-03  1.05261984E-04  5.13035451E-04 -3.04878457E-03
 -5.52912346E-03  4.50549933E-04  8.12178102E-04  2.30573857E-04  9.49646385E-04
 -4.45538233E-01 -7.26550737E-01  1.59362036E-02  8.98640239E-02  1.58658434E-02
  9.02066632E-02  1.64260463E-02  9.01167854E-02 -1.71058160E-04 -1.96311724E-04
 -4.64284242E-04 -4.29822696E-04  9.57219151E-05  5.71642369E-05  2.17001311E-04
  2.97809988E-04 -4.95330163E-17 -3.53789553E-17 -8.19710933E-17 -5.54512439E-17
 -3.04116343E-03 -5.37926887E-03  5.02001263E-03  7.87886413E-03  1.13387863E-02
  2.49374753E-02 -2.50094311E-04 -5.12874280E-03  1.55852090E-03  7.47809222E-04
 -1.25133314E-03 -2.79592769E-03 -3.56784884E-03 -1.60884903E-03 -2.18035983E-03
 -1.59035019E-03 -2.11358822E-04  2.45656430E-04  1.95907091E-04 -1.92108164E-05
  3.91258800E-05 -1.77297926E-05  1.22904485E-04 -2.19853440E-04  1.53296190E-02
  8.93752180E-02  1.66095323E-02  9.06270639E-02  1.61617185E-02  8.98086880E-02
 -4.45622279E-01 -7.26552824E-01  3.15299843E-04  8.46442102E-04  2.62317094E-04
  7.42550956E-04  4.08950079E-04  8.09166972E-04 -2.62534857E-03 -5.56997945E-03
 -1.72022374E-03 -3.38606111E-03  9.87343537E-03  2.60495266E-02 -6.25408712E-04
 -3.95194425E-03 -5.00669719E-04 -4.26161919E-03 -1.56641940E-17 -2.31920597E-17
 -3.03881649E-17 -1.27693555E-17 -1.99237549E-03 -1.49335587E-03 -1.54737814E-03
 -3.68873145E-03 -2.91089014E-03 -7.85174190E-04  1.41765430E-03  8.04067969E-04
  1.86913850E-03 -4.01679105E-03  6.84211465E-03  1.54517717E-02 -3.41713265E-03
 -5.13521615E-03  8.50688895E-03  1.52874277E-02  5.37632398E-04 -4.21608084E-03
  1.03327150E-02  2.60440832E-02 -8.38867212E-04 -3.91885366E-03 -1.92480601E-03
 -3.39481143E-03 -1.53534628E-03 -3.44096967E-03 -1.87535439E-04  3.89755403E-04
  1.00896533E-03  1.00750587E-03 -2.77952097E-03 -2.66125508E-03 -1.51054720E-04
 -1.00450641E-04  2.12919988E-04  2.38399646E-04  6.14238945E-05  2.35490264E-05
 -2.63570212E-04 -2.91427349E-04 -4.45094944E-01 -7.26478197E-01  1.60505392E-02
  9.03460956E-02  1.61065369E-02  8.99086533E-02  1.52411724E-02  8.93820304E-02
 -2.70780888E-17 -1.01269356E-17  1.91500879E-16  1.81495047E-16 -5.66511441E-04
  4.80958573E-03 -6.12384243E-03 -1.24017169E-02  3.21163511E-03  5.22082781E-03
 -9.48450315E-03 -1.88775357E-02  1.10105833E-03 -3.00309163E-05  8.67518132E-04
  3.18637090E-03  3.79531477E-03  1.64527704E-03 -1.23099464E-03 -6.14610814E-04
 -5.72981820E-04  5.09118888E-03  5.74270505E-04  4.35538678E-03  2.30102031E-03
  4.44653828E-03 -1.23035447E-02 -3.18358629E-02 -3.63535618E-04 -8.72989951E-04
  2.86256644E-03  5.62350803E-03 -3.97971310E-04 -8.43653369E-04 -2.48534345E-04
 -6.46457004E-04 -1.60152009E-02 -9.00525708E-02  4.45882902E-01  7.26712578E-01
 -1.59947351E-02 -8.99408864E-02 -1.64051900E-02 -9.03490894E-02 -2.31952114E-04
 -2.58551215E-04  3.09570281E-04  3.27260367E-04  2.84445230E-05 -4.75344080E-05
 -1.91040276E-04  1.96256082E-06 -9.31157605E-18  4.63160368E-18 -2.50088123E-17
 -3.64705377E-17  4.45054859E-01  7.25772438E-01 -1.71026560E-02 -9.09876072E-02
 -1.64628349E-02 -8.99278941E-02 -1.61252487E-02 -8.97859792E-02 -5.41775600E-04
 -8.92993221E-04  2.51004172E-03  6.42303757E-03 -3.56857970E-04 -9.07912531E-04
 -3.81664486E-04 -1.05821084E-03  2.97455475E-03  4.85811392E-03 -7.35771720E-03
 -1.23891091E-02  7.38223051E-04  5.59675188E-03 -8.91884543E-03 -1.88455211E-02
 -9.42376331E-04 -9.38937614E-04  3.81668327E-03  2.22761224E-03 -1.49504791E-03
 -6.54831940E-04  4.98019658E-03  3.68795538E-03 -8.02918675E-05 -6.00819185E-04
  1.10662625E-03  2.66993954E-03 -7.78884161E-04 -8.71370679E-04  3.25723064E-03
  2.93693753E-03  1.01670840E-03  2.37067616E-03  1.38177957E-03  4.70191004E-03
  1.08156731E-03  1.87496642E-03 -7.69442529E-03 -1.61778025E-02  1.33223576E-17
  1.73296084E-17  9.50521471E-17  6.58849215E-17 -1.10934215E-03 -7.54847035E-04
  1.56556553E-03  3.66075278E-03  3.20882114E-03  2.91249633E-03  5.79989629E-04
 -1.25356912E-03  3.75577743E-03  5.24993034E-03 -4.00370558E-03 -5.40157997E-03
 -5.06477316E-03 -5.34098525E-03 -9.31534314E-03 -1.64280352E-02 -1.74678455E-04
  2.57253698E-04  2.89131052E-05 -5.33614893E-05 -1.04741863E-05 -2.26298921E-05
  1.54035041E-04 -1.57494745E-04  4.45145457E-01  7.26260801E-01 -1.65258385E-02
 -9.05124466E-02 -1.60207431E-02 -8.99627224E-02 -1.53775599E-02 -8.95391551E-02
 -1.23481979E-04 -5.63949128E-04 -3.56172012E-04 -8.08715896E-04 -4.47304173E-04
 -7.96639872E-04  2.99400416E-03  5.32248311E-03  4.31912067E-04  4.42876530E-03
 -1.03268359E-02 -2.65519267E-02  4.47881564E-04  4.02921941E-03  1.85523710E-03
  3.45648859E-03 -3.10498520E-18 -1.35334418E-17 -7.98566904E-18 -2.08457605E-17
 -1.66075470E-02 -8.97550874E-02 -1.72612897E-02 -9.12165637E-02  4.45084830E-01
  7.25477527E-01 -1.65735026E-02 -8.96290139E-02 -2.94569058E-04 -9.53125751E-04
  3.00863720E-03  6.12395754E-03 -4.97034985E-04 -9.86006374E-04 -4.90479065E-04
 -7.83556927E-04 -9.55948642E-04 -9.75870006E-04  3.50666153E-03  3.83774324E-03
 -1.20823449E-03 -9.52688464E-04  5.16784958E-03  3.06696367E-03  1.86268573E-03
  3.86909674E-03 -8.88221892E-04  3.80627443E-03  1.64169860E-03  3.81838317E-03
 -1.10708686E-02 -2.62173739E-02 -3.73005585E-04 -8.96608725E-04  5.11536170E-03
  3.51662160E-03 -1.42546672E-03 -7.42516122E-04  2.65699262E-03  2.64876444E-03
  1.60204314E-03  1.95054536E-03 -5.27762583E-03 -7.02159632E-03  6.10778753E-04
  2.59381098E-03 -4.44504062E-03 -6.00761950E-03 -1.37221555E-17 -1.78832266E-17
 -1.24186831E-16 -1.23721087E-16  8.55242248E-03  1.37938907E-02  4.02650028E-03
  6.21538287E-03  5.09023700E-03  4.79795050E-03 -3.59011290E-03 -4.79228352E-03
  1.60536475E-05  1.01621382E-03 -1.80725002E-03 -4.36864160E-03  1.12024174E-03
  7.93158110E-04 -3.98469777E-03 -2.08968398E-03 -1.84249417E-03 -3.36619877E-03
  1.02168403E-02  2.60941269E-02 -6.09820437E-04 -3.96117209E-03 -9.37920603E-04
 -4.36296344E-03 -2.98391419E-03 -2.66325659E-03 -2.37613629E-04  5.35957380E-04
  1.02256136E-03  9.37421637E-04 -1.57552273E-03 -3.27644298E-03  2.91208905E-04
  1.97432522E-04  2.10987559E-04 -7.03627896E-05 -6.02201778E-05  5.41000871E-05
 -2.15489438E-04 -1.39514249E-04  1.54065601E-02  8.94100545E-02  1.68107979E-02
  9.04522745E-02  1.60655156E-02  8.98585078E-02 -4.45119211E-01 -7.25931516E-01
  2.08515621E-17  9.17385272E-18  5.30242222E-17  6.11813062E-17  2.63390599E-04
  1.03108711E-03 -2.73142744E-03 -6.69319591E-03  4.53898487E-04  9.84256931E-04
  1.44469106E-04  9.57219294E-04  1.63344925E-02  8.97146999E-02  1.70677959E-02
  9.10571703E-02 -4.44482370E-01 -7.25323351E-01  1.62505260E-02  8.96052620E-02
 -3.98467952E-03 -4.23642406E-03 -3.31855255E-03 -2.55371438E-03  1.34563902E-03
  9.19740265E-04  4.46490387E-04  8.76204059E-04  4.52111572E-03  6.50720718E-03
  7.19204056E-03  1.35439597E-02 -5.67316677E-04 -3.86651269E-03 -2.06038027E-03
 -3.06512434E-03  4.91969714E-03  7.08367020E-03 -2.43495106E-03 -2.83974169E-03
 -4.25815063E-04 -3.64887866E-03  6.99164794E-03  1.16908684E-02 -5.42885020E-03
 -3.35856281E-03 -2.97329753E-03 -3.33621850E-03  1.23691317E-03  9.34763173E-04
  1.01193199E-03  8.72214913E-04 -1.53041928E-17 -2.44742520E-17  3.53119925E-17
  4.73901648E-17  7.33780555E-04  5.58714396E-03 -8.63315619E-03 -2.25706894E-02
 -5.35568251E-03 -6.79223777E-03  2.67266692E-03  4.81373853E-03  2.47197149E-03
  4.60923841E-03 -8.40695630E-03 -2.16327636E-02  1.41568972E-03  4.96599969E-03
 -4.86246607E-03 -5.76771046E-03  3.69814195E-04 -1.18072484E-04  1.96196602E-03
  4.18535202E-03 -1.56771805E-04 -7.93801027E-04  1.03578327E-04 -2.15058312E-04
 -1.08987397E-02 -2.40516677E-02 -7.04878877E-04  5.77891420E-03  4.33249373E-03
  8.14796943E-03 -1.04848941E-02 -2.33556306E-02  6.01756321E-04  2.29636866E-04
  4.84501145E-04  1.15909499E-04 -4.38301884E-04 -1.39769781E-04  8.72662078E-04
  9.17477400E-04 -1.54968647E-02 -8.98370942E-02  4.47172438E-01  7.28567401E-01
 -1.58277250E-02 -9.05216281E-02 -1.61180057E-02 -9.02422441E-02 -6.02028548E-17
 -4.63642947E-17 -6.90337707E-17 -7.78282714E-17  6.82099932E-03  1.28453788E-02
  7.82977527E-03  1.90640513E-02 -1.81031343E-03 -5.68736983E-03 -2.35027619E-03
 -5.38631646E-03  1.31782764E-03 -3.60889692E-03  9.35825506E-03  2.62791072E-02
 -1.91957610E-03 -3.64666681E-03 -6.18788890E-04 -4.32916803E-03  1.59044704E-02
  9.01200414E-02 -4.47278628E-01 -7.28791731E-01  1.58777156E-02  9.04466068E-02
  1.55792189E-02  9.00678331E-02 -1.61573013E-04  1.69337977E-04 -1.34288850E-03
 -1.15889099E-03  3.15376376E-04  8.16496342E-05  2.36690387E-05  1.87224920E-04
 -2.58582356E-03 -3.62671785E-03 -2.02566890E-03 -3.16999377E-03  1.01861772E-03
  1.20896443E-03 -4.49267166E-05 -2.95068512E-04  1.09140445E-02  2.37928444E-02
  1.90821778E-04 -6.42619475E-03 -4.24979130E-03 -7.97082266E-03  1.08742294E-02
  2.34656623E-02 -2.64680479E-17 -3.14371195E-17  1.97107963E-18  2.00411769E-17
 -4.66044389E-03 -3.46389376E-03 -1.23418511E-03 -3.19574613E-03  1.14854609E-03
  8.02438380E-04  2.94953284E-04  1.08498144E-03  1.03006176E-02  2.07977346E-02
  6.49735324E-03  1.38770930E-02 -2.18519931E-03 -6.07608352E-03 -2.19060525E-03
 -5.70247251E-03 -4.46100241E-01 -7.26644195E-01  1.65580061E-02  9.02648470E-02
  1.60610175E-02  8.98111793E-02  1.63222177E-02  9.00914274E-02  1.89313506E-04
 -2.22452079E-04  1.63517927E-04 -7.65556123E-05  5.02362000E-07  2.92091299E-05
 -2.07783887E-04  2.24044739E-04  1.15388514E-02  3.00965102E-02  4.62946748E-04
 -5.03099298E-03 -2.04166192E-03 -4.20356293E-03 -8.09718229E-04 -4.22697702E-03
 -5.66200795E-04 -3.25362170E-03 -3.97273326E-04  4.36236182E-04  8.57828641E-04
  1.01020738E-03 -2.81623986E-03 -2.66462060E-03  1.27207848E-17  3.06104437E-17
  1.21318208E-16  1.21008476E-16 -3.70357681E-04 -9.65497423E-04  2.93126353E-03
  6.04838983E-03 -4.98724299E-04 -8.14719781E-04 -4.40425229E-04 -8.72906922E-04
 -1.66725564E-02 -8.96594237E-02 -1.73234152E-02 -9.11505576E-02 -1.63266043E-02
 -8.96116524E-02  4.44957034E-01  7.25281353E-01  3.91924851E-03  4.18059903E-03
  1.88579954E-03  3.11655066E-03 -1.17070383E-03 -1.02699436E-03 -1.63539650E-04
 -1.09958747E-03 -8.55357190E-03 -1.88588322E-02  1.10521946E-03  4.76152597E-03
  1.23729734E-03  2.36679785E-03  1.08670396E-03  2.57912864E-03  5.87151381E-03
  3.17032797E-03 -9.92261005E-04 -7.64276869E-04 -1.44272607E-03 -7.32171824E-04
  3.81919630E-03  2.81270246E-03 -8.29139563E-03 -1.60003194E-02 -5.23149195E-03
 -5.35772089E-03  7.25674248E-04  3.94829093E-03  2.44594445E-03  3.29279457E-03
 -5.40429875E-18 -9.70983419E-18 -8.92014507E-17 -9.38890746E-17  2.26358324E-03
  3.48384851E-03 -8.79146126E-03 -2.43159677E-02 -8.82093232E-04  4.18448062E-03