                  Welcome to Q-Chem
     A Quantum Leap Into The Future Of Chemistry


 Q-Chem 4.3, Q-Chem, Inc., Pleasanton, CA (2015)

 Y. Shao,  Z. Gan,  E. Epifanovsky,  A. T. B. Gilbert,  M. Wormit,  
 J. Kussmann,  A. W. Lange,  A. Behn,  J. Deng,  X. Feng,  D. Ghosh,  
 M. Goldey,  P. R. Horn,  L. D. Jacobson,  I. Kaliman,  R. Z. Khaliullin,  
 T. Kus,  A. Landau,  J. Liu,  E. I. Proynov,  Y. M. Rhee,  R. M. Richard,  
 M. A. Rohrdanz,  R. P. Steele,  E. J. Sundstrom,  H. L. Woodcock III,  
 P. M. Zimmerman,  D. Zuev,  B. Albrecht,  E. Alguire,  B. Austin,  
 S. A. Baeppler,  G. J. O. Beran,  Y. A. Bernard,  E. Berquist,  
 K. Brandhorst,  K. B. Bravaya,  S. T. Brown,  D. Casanova,  C.-M. Chang,  
 Y. Chen,  S. H. Chien,  K. D. Closser,  D. L. Crittenden,  M. Diedenhofen,  
 R. A. DiStasio Jr.,  H. Do,  A. D. Dutoi,  R. G. Edgar,  P.-T. Fang,  
 S. Fatehi,  Q. Feng,  L. Fusti-Molnar,  A. Ghysels,  
 A. Golubeva-Zadorozhnaya,  J. Gomes,  A. Gunina,  M. W. D. Hanson-Heine,  
 P. H. P. Harbach,  A. W. Hauser,  E. G. Hohenstein,  Z. C. Holden,  K. Hui,  
 T.-C. Jagau,  H. Ji,  B. Kaduk,  K. Khistyaev,  Jaehoon Kim,  Jihan Kim,  
 R. A. King,  P. Klunzinger,  D. Kosenkov,  T. Kowalczyk,  C. M. Krauter,  
 K. U. Lao,  A. Laurent,  K. V. Lawler,  S. Lehtola,  S. V. Levchenko,  
 C. Y. Lin,  Y.-S. Lin,  F. Liu,  E. Livshits,  R. C. Lochan,  A. Luenser,  
 P. Manohar,  S. F. Manzer,  S.-P. Mao,  N. Mardirossian,  A. V. Marenich,  
 L. A. Martinez-Martinez,  S. A. Maurer,  N. J. Mayhall,  K. Nanda,  
 C. M. Oana,  R. Olivares-Amaya,  D. P. O'Neill,  J. A. Parkhill,  
 T. M. Perrine,  R. Peverati,  P. A. Pieniazek,  F. Plasser,  A. Prociuk,  
 D. R. Rehn,  E. Rosta,  N. J. Russ,  N. Sergueev,  S. M. Sharada,  
 S. Sharma,  D. W. Small,  A. Sodt,  T. Stauch,  T. Stein,  D. Stuck,  
 Y.-C. Su,  A. J. W. Thom,  T. Tsuchimochi,  L. Vogt,  O. Vydrov,  T. Wang,  
 M. A. Watson,  J. Wenzel,  A. White,  C. F. Williams,  V. Vanovschi,  
 S. Yeganeh,  S. R. Yost,  Z.-Q. You,  I. Y. Zhang,  X. Zhang,  Y. Zhao,  
 B. R. Brooks,  G. K. L. Chan,  D. M. Chipman,  C. J. Cramer,  
 W. A. Goddard III,  M. S. Gordon,  W. J. Hehre,  A. Klamt,  
 H. F. Schaefer III,  M. W. Schmidt,  C. D. Sherrill,  D. G. Truhlar,  
 A. Warshel,  X. Xu,  A. Aspuru-Guzik,  R. Baer,  A. T. Bell,  N. A. Besley,  
 J.-D. Chai,  A. Dreuw,  B. D. Dunietz,  T. R. Furlani,  S. R. Gwaltney,  
 C.-P. Hsu,  Y. Jung,  J. Kong,  D. S. Lambrecht,  W. Liang,  C. Ochsenfeld,  
 V. A. Rassolov,  L. V. Slipchenko,  J. E. Subotnik,  T. Van Voorhis,  
 J. M. Herbert,  A. I. Krylov,  P. M. W. Gill,  M. Head-Gordon

 Contributors to earlier versions of Q-Chem not listed above: 
 R. D. Adamson,  J. Baker,  E. F. C. Byrd,  A. K. Chakraborty,  C.-L. Cheng,  
 H. Dachsel,  R. J. Doerksen,  G. Hawkins,  A. Heyden,  S. Hirata,  
 G. Kedziora,  F. J. Keil,  C. Kelley,  P. P. Korambath,  W. Kurlancheek,  
 A. M. Lee,  M. S. Lee,  D. Liotard,  I. Lotan,  P. E. Maslen,  N. Nair,  
 D. Neuhauser,  R. Olson,  B. Peters,  J. Ritchie,  N. E. Schultz,  
 N. Shenvi,  A. C. Simmonett,  K. S. Thanthiriwatte,  Q. Wu,  W. Zhang

 Please cite Q-Chem as follows:
 Y. Shao et al., Mol. Phys. 113, 184-215 (2015)
 DOI: 10.1080/00268976.2014.952696

 Q-Chem 4.3.0 for Intel X86 EM64T Linux

 Parts of Q-Chem use Armadillo 5.200.1 (Boston Tea Smuggler).
 http://arma.sourceforge.net/

 Q-Chem begins on Tue Mar 21 19:50:44 2017  


Host: 0

     Scratch files written to /home/nmayhall/scratch_qchem/24//
 Dec1416 |home|nmayhall|qcSoftware|qchem|qchem.svn-casman|libmdc|qstr_RNUM -1
 Using version located at /home/nmayhall/qcSoftware/qchem/qchem.svn-casman/bin/qchem


Total Memory Limit in MB = 2000
Mega-Array Size in MB = 62

Checking the input file for inconsistencies... 	...done.

 Q-Chem warning in module /home/nmayhall/qcSoftware/qchem/qchem.svn-casman/forms1/BasisType.C, line 1452:

 You are not using the predefined 5D/6D in this basis set.

Finally everything over in PARseQInput

--------------------------------------------------------------
User input:
--------------------------------------------------------------
$rem
	exchange 		hf
	unrestricted		1
	basis			6-31g*	
	aux_basis		rimp2-vdz
	scf_guess		core	
	scf_convergence		8
	purecart		1111

	symmetry		0
	sym_ignore		1

	!correlation		sf-cas
	!cas_n_spin_flip		1
	!cas_local		1
	gui			2
$end

$development
	1sf_heis_projection	1
$end

$molecule
0 25
H         -2.84748        3.37274       -0.27802
H         -2.58268        1.64369        0.18569
H         -4.19546        2.17355       -0.44146
H         -3.64413        2.69831        1.20355
H          0.91180       -0.69082       -0.05491
H         -0.77282       -0.03486       -0.13778
H         -0.45645       -1.60331        0.70657
H         -0.32838       -1.50257       -1.09832
H          1.07134        2.07490        0.32805
H         -0.17588        2.47943       -0.92077
H          1.10862        3.68472       -0.50177
H         -0.20459        3.30956        0.68795
H         -3.15223       -1.82134       -0.73317
H         -3.29142       -0.91382        0.82784
H         -4.56169       -2.11870        0.36520
H         -4.42884       -0.55168       -0.53391
H         -0.05018        0.87842        2.44526
H         -1.35289        2.09859        2.75550
H         -0.96779        0.84639        4.00647
H         -1.78657        0.36464        2.46486
H         -0.85720        0.71736       -2.85585
H         -2.51174        0.33769       -2.22583
H         -2.27419        0.69688       -3.98453
H         -2.11149        2.02106       -2.75882
He	10	10	10	
He	-10	10	10	
$end


--------------------------------------------------------------
 ----------------------------------------------------------------
             Standard Nuclear Orientation (Angstroms)
    I     Atom           X                Y                Z
 ----------------------------------------------------------------
    1      H      -2.8474800000     3.3727400000    -0.2780200000
    2      H      -2.5826800000     1.6436900000     0.1856900000
    3      H      -4.1954600000     2.1735500000    -0.4414600000
    4      H      -3.6441300000     2.6983100000     1.2035500000
    5      H       0.9118000000    -0.6908200000    -0.0549100000
    6      H      -0.7728200000    -0.0348600000    -0.1377800000
    7      H      -0.4564500000    -1.6033100000     0.7065700000
    8      H      -0.3283800000    -1.5025700000    -1.0983200000
    9      H       1.0713400000     2.0749000000     0.3280500000
   10      H      -0.1758800000     2.4794300000    -0.9207700000
   11      H       1.1086200000     3.6847200000    -0.5017700000
   12      H      -0.2045900000     3.3095600000     0.6879500000
   13      H      -3.1522300000    -1.8213400000    -0.7331700000
   14      H      -3.2914200000    -0.9138200000     0.8278400000
   15      H      -4.5616900000    -2.1187000000     0.3652000000
   16      H      -4.4288400000    -0.5516800000    -0.5339100000
   17      H      -0.0501800000     0.8784200000     2.4452600000
   18      H      -1.3528900000     2.0985900000     2.7555000000
   19      H      -0.9677900000     0.8463900000     4.0064700000
   20      H      -1.7865700000     0.3646400000     2.4648600000
   21      H      -0.8572000000     0.7173600000    -2.8558500000
   22      H      -2.5117400000     0.3376900000    -2.2258300000
   23      H      -2.2741900000     0.6968800000    -3.9845300000
   24      H      -2.1114900000     2.0210600000    -2.7588200000
   25      He     10.0000000000    10.0000000000    10.0000000000
   26      He    -10.0000000000    10.0000000000    10.0000000000
 ----------------------------------------------------------------
 Nuclear Repulsion Energy =    43.9751798599 hartrees
 There are       26 alpha and        2 beta electrons
 Requested basis set is 6-31G(d)
 There are 52 shells and 52 basis functions

Total QAlloc Memory Limit   2000 MB
Mega-Array Size        61 MB
MEM_STATIC part        62 MB

finished with qalloc call

 Q-Chem warning in module /home/nmayhall/qcSoftware/qchem/qchem.svn-casman/forms1/BasisType.C, line 1375:

 SAD: How to set up polarization functions for non-Pople basis?

 Requested basis set is rimp2-VDZ
 There are 154 shells and 354 basis functions
 Job number = 2, Threshold = 1.00E-11
Integral type ranges set in mkLRange.C for JobNum: 2  <1-7|1-7>
Symmetry turned off temporarily
 Using the largest function pair in Schwarz integrals
Total number of integrals generated =            2494
Symmetry turned back on
 A cutoff of  1.0D-11 yielded   1084 shell pairs
 There are      1084 function pairs
 Job number = 11, Threshold = 1.00E-11
Integral type ranges set in mkLRange.C for JobNum: 11  <1-1|8-8>

 -------------------------------------------------------
 OpenMP Integral Computing Module                       
 Release: version 1.0, May 2013, Q-Chem Inc. Pittsburgh 
 -------------------------------------------------------
 Integral Job Info:
 Integral job number is                      11
 Integral operator is                         1
 short-range coefficients                     0
 long-range coefficients              100000000
 Omega coefficients                           0
 if combine SR and LR in K                    0
 Integral screening is                        0
 Integral computing path is                   2
 max size of driver memory is            800000
 size of driver memory is                 11780
 size of scratch memory is               800000
 max col of scratch BK array                289
 max len of scratch array in speh3            1
 max len of scratch index in speh4            2
 max int batch size is                      520
 min int batch size is                       52
 fixed nKL is                               520
 max L of basis functions is                  0
 order of int derivative is                   0
 number of shells is                         52
 number of basis is                          52
 number of cartesian basis is                52
 number of contracted shell pairs          1084
 number of primitive shell pairs           2756
 maxK2 (contraction) of shell pair            9
 max number of K2 of shell pair               1
 max number of CS2 of shell pair            559
 max number of PS2 of shell pair           1677
 mem total for path MDJ                   11724
 -------------------------------------------------------
 Smallest overlap matrix eigenvalue = 1.75E-01
 Multipole matrices computed through 2nd order

  Scale SEOQF with 1.000000e-02/1.000000e-02/1.000000e-02

 Standard Electronic Orientation quadrupole field applied
 Nucleus-field energy     =     0.0000000002 hartrees
GuessMan:  IGuess = 1
 Guess MOs from core Hamiltonian diagonalization
scfman initvdwdat 
 An unrestricted Hartree-Fock SCF calculation will be
 performed using Pulay DIIS extrapolation
 SCF converges when DIIS error is below 1.0E-08
Finding J and K together
 Job number = 22, Threshold = 1.00E-11
Integral type ranges set in mkLRange.C for JobNum: 22  <1-1|1-1>
Storing 309.18% of integrals
Total number of integrals generated =          502521
 MakeJK  time:  CPU       0.12 s  wall       0.12 s
Fock build time:  0.12 s (CPU) 0.12 s (wall)
DIIS Errors:  Max 3.79E-01 RMS 2.62E-02

Current DIIS subspace size = 1
REM_GRID_RESTART_DIIS = 0

 ---------------------------------------
  Cycle       Energy         DIIS Error
 ---------------------------------------
    1      -7.5276394257      2.62E-02  00000
Finding J and K together
 Job number = 22, Threshold = 1.00E-11
Integral type ranges set in mkLRange.C for JobNum: 22  <1-1|1-1>
Storing 309.18% of integrals
Reusing in-core integrals buffer for job 22
 MakeJK  time:  CPU       0.03 s  wall       0.03 s
Fock build time:  0.03 s (CPU) 0.03 s (wall)
DIIS Errors:  Max 4.99E-01 RMS 2.00E-02

Current DIIS subspace size = 2
REM_GRID_RESTART_DIIS = 0

    2     -13.0265925075      2.00E-02  00000
Finding J and K together
 Job number = 22, Threshold = 1.00E-11
Integral type ranges set in mkLRange.C for JobNum: 22  <1-1|1-1>
Storing 309.18% of integrals
Reusing in-core integrals buffer for job 22
 MakeJK  time:  CPU       0.03 s  wall       0.03 s
Fock build time:  0.03 s (CPU) 0.03 s (wall)
DIIS Errors:  Max 1.17E-01 RMS 5.40E-03

Current DIIS subspace size = 3
REM_GRID_RESTART_DIIS = 0

    3     -17.1888021655      5.40E-03  00000
Finding J and K together
 Job number = 22, Threshold = 1.00E-11
Integral type ranges set in mkLRange.C for JobNum: 22  <1-1|1-1>
Storing 309.18% of integrals
Reusing in-core integrals buffer for job 22
 MakeJK  time:  CPU       0.03 s  wall       0.03 s
Fock build time:  0.03 s (CPU) 0.03 s (wall)
DIIS Errors:  Max 7.49E-02 RMS 3.10E-03

Current DIIS subspace size = 4
REM_GRID_RESTART_DIIS = 0

    4     -17.2038039635      3.10E-03  00000
Finding J and K together
 Job number = 22, Threshold = 1.00E-11
Integral type ranges set in mkLRange.C for JobNum: 22  <1-1|1-1>
Storing 309.18% of integrals
Reusing in-core integrals buffer for job 22
 MakeJK  time:  CPU       0.03 s  wall       0.03 s
Fock build time:  0.03 s (CPU) 0.03 s (wall)
DIIS Errors:  Max 3.29E-02 RMS 1.32E-03

Current DIIS subspace size = 5
REM_GRID_RESTART_DIIS = 0

    5     -17.2076186489      1.32E-03  00000
Finding J and K together
 Job number = 22, Threshold = 1.00E-11
Integral type ranges set in mkLRange.C for JobNum: 22  <1-1|1-1>
Storing 309.18% of integrals
Reusing in-core integrals buffer for job 22
 MakeJK  time:  CPU       0.03 s  wall       0.03 s
Fock build time:  0.03 s (CPU) 0.03 s (wall)
DIIS Errors:  Max 6.57E-03 RMS 2.69E-04

Current DIIS subspace size = 6
REM_GRID_RESTART_DIIS = 0

    6     -17.2082591411      2.69E-04  00000
Finding J and K together
 Job number = 22, Threshold = 1.00E-11
Integral type ranges set in mkLRange.C for JobNum: 22  <1-1|1-1>
Storing 309.18% of integrals
Reusing in-core integrals buffer for job 22
 MakeJK  time:  CPU       0.03 s  wall       0.03 s
Fock build time:  0.03 s (CPU) 0.03 s (wall)
DIIS Errors:  Max 1.20E-04 RMS 6.21E-06

Current DIIS subspace size = 7
REM_GRID_RESTART_DIIS = 0

    7     -17.2083174842      6.21E-06  00000
Finding J and K together
 Job number = 22, Threshold = 1.00E-11
Integral type ranges set in mkLRange.C for JobNum: 22  <1-1|1-1>
Storing 309.18% of integrals
Reusing in-core integrals buffer for job 22
 MakeJK  time:  CPU       0.03 s  wall       0.03 s
Fock build time:  0.03 s (CPU) 0.03 s (wall)
DIIS Errors:  Max 2.00E-05 RMS 1.07E-06

Current DIIS subspace size = 8
REM_GRID_RESTART_DIIS = 0

    8     -17.2083192189      1.07E-06  00000
Finding J and K together
 Job number = 22, Threshold = 1.00E-11
Integral type ranges set in mkLRange.C for JobNum: 22  <1-1|1-1>
Storing 309.18% of integrals
Reusing in-core integrals buffer for job 22
 MakeJK  time:  CPU       0.02 s  wall       0.03 s
Fock build time:  0.02 s (CPU) 0.03 s (wall)
DIIS Errors:  Max 3.12E-06 RMS 1.29E-07

Current DIIS subspace size = 9
REM_GRID_RESTART_DIIS = 0

    9     -17.2083195107      1.29E-07  00000
Finding J and K together
 Job number = 22, Threshold = 1.00E-11
Integral type ranges set in mkLRange.C for JobNum: 22  <1-1|1-1>
Storing 309.18% of integrals
Reusing in-core integrals buffer for job 22
 MakeJK  time:  CPU       0.02 s  wall       0.03 s
Fock build time:  0.02 s (CPU) 0.03 s (wall)
DIIS Errors:  Max 2.04E-07 RMS 8.57E-09

Current DIIS subspace size = 10
REM_GRID_RESTART_DIIS = 0

   10     -17.2083195435      8.57E-09  00000 Convergence criterion met
 ---------------------------------------
 <S^2> = 156.0000
 SCF time:  CPU 0.38 s  wall 0.39 s
 SCF   energy in the final basis set = -17.2083195435
 Total energy in the final basis set = -17.2083195435
Symmetry turned off temporarily
 Analysis of SCF Wavefunction

 --------------------------------------------------------------

                    Orbital Energies (a.u.)
 --------------------------------------------------------------

 Alpha MOs
 -- Occupied --
 -0.914  -0.914  -0.739  -0.710  -0.706  -0.703  -0.694  -0.690
 -0.506  -0.489  -0.485  -0.482  -0.478  -0.471  -0.464  -0.453
 -0.451  -0.447  -0.444  -0.440  -0.436  -0.433  -0.433  -0.430
 -0.427  -0.423
 -- Virtual --
  0.770   0.800   0.802   0.807   0.822   0.843   0.863   0.940
  0.952   0.963   0.972   0.980   0.984   1.002   1.019   1.021
  1.057   1.077   1.088   1.169   1.187   1.204   1.231   1.258
  1.400   1.400

 Beta MOs
 -- Occupied --
 -0.914  -0.914
 -- Virtual --
 -0.084  -0.047  -0.042  -0.039  -0.025  -0.017   0.102   0.115
  0.120   0.125   0.129   0.139   0.156   0.173   0.175   0.183
  0.186   0.192   0.200   0.205   0.206   0.212   0.215   0.222
  1.016   1.033   1.034   1.037   1.049   1.066   1.083   1.145
  1.154   1.162   1.172   1.179   1.182   1.200   1.215   1.226
  1.245   1.262   1.276   1.365   1.382   1.397   1.400   1.400
  1.425   1.452
 --------------------------------------------------------------

          Ground-State Mulliken Net Atomic Charges

     Atom                 Charge (a.u.)    Spin (a.u.)
  --------------------------------------------------------
      1 H                    -0.000044       1.000044
      2 H                    -0.000146       1.000146
      3 H                     0.000001       0.999999
      4 H                     0.000030       0.999970
      5 H                     0.000020       0.999980
      6 H                    -0.000143       1.000143
      7 H                    -0.000037       1.000037
      8 H                    -0.000020       1.000020
      9 H                    -0.000037       1.000037
     10 H                    -0.000028       1.000028
     11 H                     0.000181       0.999819
     12 H                    -0.000040       1.000040
     13 H                    -0.000042       1.000042
     14 H                     0.000003       0.999997
     15 H                     0.000140       0.999860
     16 H                    -0.000025       1.000025
     17 H                    -0.000040       1.000040
     18 H                    -0.000047       1.000047
     19 H                     0.000175       0.999825
     20 H                    -0.000014       1.000014
     21 H                    -0.000042       1.000042
     22 H                     0.000001       0.999999
     23 H                     0.000168       0.999832
     24 H                    -0.000013       1.000013
     25 He                    0.000000       0.000000
     26 He                    0.000000       0.000000
  --------------------------------------------------------
  Sum of atomic charges =     0.000000
  Sum of spin   charges =    24.000000

 -----------------------------------------------------------------
                    Cartesian Multipole Moments
 -----------------------------------------------------------------
    Charge (ESU x 10^10)
                 0.0000
    Dipole Moment (Debye)
         X      -0.0011      Y      -0.0001      Z      -0.0006
       Tot       0.0012
    Quadrupole Moments (Debye-Ang)
        XX     -37.4331     XY      -0.0983     YY     -37.4708
        XZ      -0.0138     YZ       0.0253     ZZ     -37.5085
    Octopole Moments (Debye-Ang^2)
       XXX     172.8427    XXY     -49.5318    XYY      58.6738
       YYY    -153.2273    XXZ     -19.3246    XYZ       0.1931
       YYZ     -19.7095    XZZ      59.2870    YZZ     -49.5754
       ZZZ     -61.1383
    Hexadecapole Moments (Debye-Ang^3)
      XXXX   -2458.6091   XXXY      68.7975   XXYY    -754.0529
      XYYY      72.0300   YYYY   -2051.6056   XXXZ     -41.1019
      XXYZ    -206.4543   XYYZ      -5.5554   YYYZ    -631.6654
      XXZZ    -736.1280   XYZZ      30.5633   YYZZ    -666.6142
      XZZZ     -42.5504   YZZZ    -639.2367   ZZZZ   -2003.6612
 -----------------------------------------------------------------
 JobOver = TRUE
Archival summary:
1\1\sinatra\SP\HF\6-31G*\e224(¬)\nmayhall\TueMar2119:50:452017TueMar2119:50:452017\0\\#,HF,6-31G*,\\0,25\H\H,1,1.80963\H,1,1.80968,2,60.098\H,1,1.80973,2,60.0694,3,-70.5886,0\H,1,2.48953,2,135.832,3,152.309,0\H,5,1.80916,1,130.619,2,-163.289,0\H,5,1.80951,1,142.6,2,104.376,0\H,5,1.80972,1,156.23,2,-54.724,0\H,5,2.7002,1,64.5687,2,-7.67096,0\H,9,1.8105,5,99.5424,1,-65.8101,0\H,9,1.81059,5,135.202,1,-122.464,0\H,9,1.81073,5,75.1825,1,-121.175,0\H,10,2.65703,9,119.295,5,16.0119,0\H,13,1.81084,10,114.521,9,-10.1986,0\H,14,1.81081,13,60.0216,10,-134.581,0\H,14,1.81091,13,60.0287,10,-64.0577,0\H,14,2.56493,13,136.073,10,60.081,0\H,17,1.81087,14,138.485,13,1.57655,0\H,17,1.8109,14,154.99,13,131.255,0\H,17,1.811,14,139.009,13,-97.0871,0\H,20,2.70179,17,95.3927,14,66.9462,0\H,21,1.81053,20,163.342,17,-1.99129,0\H,21,1.81066,20,136.572,17,173.248,0\H,21,1.81068,20,125.198,17,-105.025,0\He,3,13.0801,1,171.333,2,117.677,0\He,11,15.1402,9,148.74,5,37.6548,0\\HF=-17.2083195\\@

 Total job time:  0.48s(wall), 0.45s(cpu) 
 Tue Mar 21 19:50:45 2017

        *************************************************************
        *                                                           *
        *  Thank you very much for using Q-Chem.  Have a nice day.  *
        *                                                           *
        *************************************************************


*** MISSION COMPLETED -- STARFLEET OUT ***

 
User input: 2 of 2 
 
                  Welcome to Q-Chem
     A Quantum Leap Into The Future Of Chemistry


 Q-Chem 4.3, Q-Chem, Inc., Pleasanton, CA (2015)

 Y. Shao,  Z. Gan,  E. Epifanovsky,  A. T. B. Gilbert,  M. Wormit,  
 J. Kussmann,  A. W. Lange,  A. Behn,  J. Deng,  X. Feng,  D. Ghosh,  
 M. Goldey,  P. R. Horn,  L. D. Jacobson,  I. Kaliman,  R. Z. Khaliullin,  
 T. Kus,  A. Landau,  J. Liu,  E. I. Proynov,  Y. M. Rhee,  R. M. Richard,  
 M. A. Rohrdanz,  R. P. Steele,  E. J. Sundstrom,  H. L. Woodcock III,  
 P. M. Zimmerman,  D. Zuev,  B. Albrecht,  E. Alguire,  B. Austin,  
 S. A. Baeppler,  G. J. O. Beran,  Y. A. Bernard,  E. Berquist,  
 K. Brandhorst,  K. B. Bravaya,  S. T. Brown,  D. Casanova,  C.-M. Chang,  
 Y. Chen,  S. H. Chien,  K. D. Closser,  D. L. Crittenden,  M. Diedenhofen,  
 R. A. DiStasio Jr.,  H. Do,  A. D. Dutoi,  R. G. Edgar,  P.-T. Fang,  
 S. Fatehi,  Q. Feng,  L. Fusti-Molnar,  A. Ghysels,  
 A. Golubeva-Zadorozhnaya,  J. Gomes,  A. Gunina,  M. W. D. Hanson-Heine,  
 P. H. P. Harbach,  A. W. Hauser,  E. G. Hohenstein,  Z. C. Holden,  K. Hui,  
 T.-C. Jagau,  H. Ji,  B. Kaduk,  K. Khistyaev,  Jaehoon Kim,  Jihan Kim,  
 R. A. King,  P. Klunzinger,  D. Kosenkov,  T. Kowalczyk,  C. M. Krauter,  
 K. U. Lao,  A. Laurent,  K. V. Lawler,  S. Lehtola,  S. V. Levchenko,  
 C. Y. Lin,  Y.-S. Lin,  F. Liu,  E. Livshits,  R. C. Lochan,  A. Luenser,  
 P. Manohar,  S. F. Manzer,  S.-P. Mao,  N. Mardirossian,  A. V. Marenich,  
 L. A. Martinez-Martinez,  S. A. Maurer,  N. J. Mayhall,  K. Nanda,  
 C. M. Oana,  R. Olivares-Amaya,  D. P. O'Neill,  J. A. Parkhill,  
 T. M. Perrine,  R. Peverati,  P. A. Pieniazek,  F. Plasser,  A. Prociuk,  
 D. R. Rehn,  E. Rosta,  N. J. Russ,  N. Sergueev,  S. M. Sharada,  
 S. Sharma,  D. W. Small,  A. Sodt,  T. Stauch,  T. Stein,  D. Stuck,  
 Y.-C. Su,  A. J. W. Thom,  T. Tsuchimochi,  L. Vogt,  O. Vydrov,  T. Wang,  
 M. A. Watson,  J. Wenzel,  A. White,  C. F. Williams,  V. Vanovschi,  
 S. Yeganeh,  S. R. Yost,  Z.-Q. You,  I. Y. Zhang,  X. Zhang,  Y. Zhao,  
 B. R. Brooks,  G. K. L. Chan,  D. M. Chipman,  C. J. Cramer,  
 W. A. Goddard III,  M. S. Gordon,  W. J. Hehre,  A. Klamt,  
 H. F. Schaefer III,  M. W. Schmidt,  C. D. Sherrill,  D. G. Truhlar,  
 A. Warshel,  X. Xu,  A. Aspuru-Guzik,  R. Baer,  A. T. Bell,  N. A. Besley,  
 J.-D. Chai,  A. Dreuw,  B. D. Dunietz,  T. R. Furlani,  S. R. Gwaltney,  
 C.-P. Hsu,  Y. Jung,  J. Kong,  D. S. Lambrecht,  W. Liang,  C. Ochsenfeld,  
 V. A. Rassolov,  L. V. Slipchenko,  J. E. Subotnik,  T. Van Voorhis,  
 J. M. Herbert,  A. I. Krylov,  P. M. W. Gill,  M. Head-Gordon

 Contributors to earlier versions of Q-Chem not listed above: 
 R. D. Adamson,  J. Baker,  E. F. C. Byrd,  A. K. Chakraborty,  C.-L. Cheng,  
 H. Dachsel,  R. J. Doerksen,  G. Hawkins,  A. Heyden,  S. Hirata,  
 G. Kedziora,  F. J. Keil,  C. Kelley,  P. P. Korambath,  W. Kurlancheek,  
 A. M. Lee,  M. S. Lee,  D. Liotard,  I. Lotan,  P. E. Maslen,  N. Nair,  
 D. Neuhauser,  R. Olson,  B. Peters,  J. Ritchie,  N. E. Schultz,  
 N. Shenvi,  A. C. Simmonett,  K. S. Thanthiriwatte,  Q. Wu,  W. Zhang

 Please cite Q-Chem as follows:
 Y. Shao et al., Mol. Phys. 113, 184-215 (2015)
 DOI: 10.1080/00268976.2014.952696

 Q-Chem 4.3.0 for Intel X86 EM64T Linux

 Parts of Q-Chem use Armadillo 5.200.1 (Boston Tea Smuggler).
 http://arma.sourceforge.net/

 Q-Chem begins on Tue Mar 21 19:50:45 2017  


Host: 0

     Scratch files written to /home/nmayhall/scratch_qchem/24//
 Dec1416 |home|nmayhall|qcSoftware|qchem|qchem.svn-casman|libmdc|qstr_RNUM -1
 Using version located at /home/nmayhall/qcSoftware/qchem/qchem.svn-casman/bin/qchem

 Turning off symmetry for CASMAN

Total Memory Limit in MB = 2000
Mega-Array Size in MB = 62

Checking the input file for inconsistencies... 	...done.

 Q-Chem warning in module /home/nmayhall/qcSoftware/qchem/qchem.svn-casman/forms1/BasisType.C, line 1452:

 You are not using the predefined 5D/6D in this basis set.

Finally everything over in PARseQInput

--------------------------------------------------------------
User input:
--------------------------------------------------------------
$rem
	exchange 		hf
	unrestricted		0
	basis			6-31g*	
	aux_basis		rimp2-vdz
	scf_guess		read	
	scf_convergence		8
	purecart		1111

	symmetry		0
	sym_ignore		1

	correlation		sf-cas
	cas_n_spin_flip		1
	cas_local		1
	gui			2
$end

$development
	1sf_heis_projection	1
	scf_corresponding_orbs	1
        heisenberg_n_roots	0
$end

$molecule
read
$end

--------------------------------------------------------------
 ----------------------------------------------------------------
             Standard Nuclear Orientation (Angstroms)
    I     Atom           X                Y                Z
 ----------------------------------------------------------------
    1      H      -2.8474800000     3.3727400000    -0.2780200000
    2      H      -2.5826800000     1.6436900000     0.1856900000
    3      H      -4.1954600000     2.1735500000    -0.4414600000
    4      H      -3.6441300000     2.6983100000     1.2035500000
    5      H       0.9118000000    -0.6908200000    -0.0549100000
    6      H      -0.7728200000    -0.0348600000    -0.1377800000
    7      H      -0.4564500000    -1.6033100000     0.7065700000
    8      H      -0.3283800000    -1.5025700000    -1.0983200000
    9      H       1.0713400000     2.0749000000     0.3280500000
   10      H      -0.1758800000     2.4794300000    -0.9207700000
   11      H       1.1086200000     3.6847200000    -0.5017700000
   12      H      -0.2045900000     3.3095600000     0.6879500000
   13      H      -3.1522300000    -1.8213400000    -0.7331700000
   14      H      -3.2914200000    -0.9138200000     0.8278400000
   15      H      -4.5616900000    -2.1187000000     0.3652000000
   16      H      -4.4288400000    -0.5516800000    -0.5339100000
   17      H      -0.0501800000     0.8784200000     2.4452600000
   18      H      -1.3528900000     2.0985900000     2.7555000000
   19      H      -0.9677900000     0.8463900000     4.0064700000
   20      H      -1.7865700000     0.3646400000     2.4648600000
   21      H      -0.8572000000     0.7173600000    -2.8558500000
   22      H      -2.5117400000     0.3376900000    -2.2258300000
   23      H      -2.2741900000     0.6968800000    -3.9845300000
   24      H      -2.1114900000     2.0210600000    -2.7588200000
   25      He     10.0000000000    10.0000000000    10.0000000000
   26      He    -10.0000000000    10.0000000000    10.0000000000
 ----------------------------------------------------------------
 Nuclear Repulsion Energy =    43.9751798599 hartrees
 There are       26 alpha and        2 beta electrons
 Requested basis set is 6-31G(d)
 There are 52 shells and 52 basis functions

Total QAlloc Memory Limit   2000 MB
Mega-Array Size        61 MB
MEM_STATIC part        62 MB

finished with qalloc call

 Q-Chem warning in module /home/nmayhall/qcSoftware/qchem/qchem.svn-casman/forms1/BasisType.C, line 1375:

 SAD: How to set up polarization functions for non-Pople basis?

 Requested basis set is rimp2-VDZ
 There are 154 shells and 354 basis functions
 Job number = 2, Threshold = 1.00E-12
Integral type ranges set in mkLRange.C for JobNum: 2  <1-7|1-7>
Symmetry turned off temporarily
 Using the largest function pair in Schwarz integrals
Total number of integrals generated =            2501
Symmetry turned back on
 A cutoff of  1.0D-12 yielded   1091 shell pairs
 There are      1091 function pairs
 Job number = 11, Threshold = 1.00E-12
Integral type ranges set in mkLRange.C for JobNum: 11  <1-1|8-8>

 -------------------------------------------------------
 OpenMP Integral Computing Module                       
 Release: version 1.0, May 2013, Q-Chem Inc. Pittsburgh 
 -------------------------------------------------------
 Integral Job Info:
 Integral job number is                      11
 Integral operator is                         1
 short-range coefficients                     0
 long-range coefficients              100000000
 Omega coefficients                           0
 if combine SR and LR in K                    0
 Integral screening is                        0
 Integral computing path is                   2
 max size of driver memory is            800000
 size of driver memory is                 11780
 size of scratch memory is               800000
 max col of scratch BK array                289
 max len of scratch array in speh3            1
 max len of scratch index in speh4            2
 max int batch size is                      520
 min int batch size is                       52
 fixed nKL is                               520
 max L of basis functions is                  0
 order of int derivative is                   0
 number of shells is                         52
 number of basis is                          52
 number of cartesian basis is                52
 number of contracted shell pairs          1091
 number of primitive shell pairs           2801
 maxK2 (contraction) of shell pair            9
 max number of K2 of shell pair               1
 max number of CS2 of shell pair            577
 max number of PS2 of shell pair           1731
 mem total for path MDJ                   11940
 -------------------------------------------------------
 Smallest overlap matrix eigenvalue = 1.75E-01
 Multipole matrices computed through 2nd order

  Scale SEOQF with 1.000000e-02/1.000000e-02/1.000000e-02

 Standard Electronic Orientation quadrupole field applied
 Nucleus-field energy     =     0.0000000002 hartrees
GuessMan:  IGuess = 1000
 Guess MOs from SCF MO coefficient file
 Reading MOs from coefficient file
 Reading MOs from coefficient file
scfman initvdwdat 
 A restricted Hartree-Fock SCF calculation will be
 performed using Geometric Direct Minimization
 SCF converges when RMS gradient is below 1.0E-08
Finding J and K together
 Job number = 22, Threshold = 1.00E-12
Integral type ranges set in mkLRange.C for JobNum: 22  <1-1|1-1>
Storing 305.22% of integrals
Total number of integrals generated =          529725
 MakeJK  time:  CPU       0.13 s  wall       0.13 s
Fock build time:  0.13 s (CPU) 0.13 s (wall)
 ---------------------------------------
  Cycle       Energy        RMS Gradient
 ---------------------------------------
    1     -17.2083195479      3.03E-05  00000 Normal BFGS step
Finding J and K together
 Job number = 22, Threshold = 1.00E-12
Integral type ranges set in mkLRange.C for JobNum: 22  <1-1|1-1>
Storing 305.22% of integrals
Reusing in-core integrals buffer for job 22
 MakeJK  time:  CPU       0.03 s  wall       0.03 s
Fock build time:  0.03 s (CPU) 0.03 s (wall)
    2     -17.2083195484      1.36E-09  00000 Convergence criterion met
 ---------------------------------------
 SCF time:  CPU 0.16 s  wall 0.17 s
 Obtaining Corresponding orbitals

 Forming corresponding orbitals block-by-block...
 Size of singly occupied alpha block:      24 : 24.0000
 Size of doubly occupied block:             2 : 2.0000
 Size of singly occupied beta block:        0 : 0.0000
 Size of unoccupied block:                 26 : 26.0000
 Use scf_boys =     0 (Canonical)
                    1 (Boys)
                    2 (Pipek-Mezey)
                    3 (ER)
 Build new fock matrix
 I'm here
 I'm here
 Calling AOints...
 Job number = 22, Threshold = 1.00E-12
Integral type ranges set in mkLRange.C for JobNum: 22  <1-1|1-1>
Storing 305.22% of integrals
 done.
 E(SCF): disk=    -17.208319548399 current=    -17.208319548399 diff=   1.421e-14
 SCF   energy in the final basis set = -17.2083195484
 Total energy in the final basis set = -17.2083195484
 DevKeyword Parameters: 
 1sf_heis_projection                   1
  heisenberg_n_roots                   0
scf_corresponding_orbs                   1


 ========================================================
                       In SF-CAS-CI                      
 ========================================================
 DevKeyword Parameters: 
 1sf_heis_projection                   1
  heisenberg_n_roots                   0
scf_corresponding_orbs                   1

 Forming orbitals for SF-CAS calculation.
NBas   : 52
NOrb   : 52
NDOcc  : 2
NSOcc  : 24
NDVir  : 26
ISpin  : 0
e_hf: -17.20831955
 Using OPT1 Orbitals: Favg | Favg | Favg 
 A/B mix in Doubly occupied F  : 0.50000000
 A/B mix in Singly occupied F  : 0.50000000
 A/B mix in Doubly unoccupied F: 0.50000000
 Max of F(beta)ds      : 3.558e-16
 Max of F(alpha)sv     : 3.809e-11
 Max of F(average)dv   : 7.824e-11
 Orbital Energies  (D):
    1    -0.91413519    -0.91413519
    2    -0.91412725    -0.91412725
 Orbital Energies  (S):
    3    -0.39654794    -0.39654794
    4    -0.36481939    -0.36481939
    5    -0.36037081    -0.36037081
    6    -0.35766928    -0.35766928
    7    -0.34707393    -0.34707393
    8    -0.34146781    -0.34146781
    9    -0.18055766    -0.18055766
   10    -0.16496062    -0.16496062
   11    -0.16142295    -0.16142295
   12    -0.15765193    -0.15765193
   13    -0.15339549    -0.15339549
   14    -0.14605829    -0.14605829
   15    -0.13582192    -0.13582192
   16    -0.12259539    -0.12259539
   17    -0.12063644    -0.12063644
   18    -0.11539623    -0.11539623
   19    -0.11252789    -0.11252789
   20    -0.10786697    -0.10786697
   21    -0.10299036    -0.10299036
   22    -0.09900304    -0.09900304
   23    -0.09843995    -0.09843995
   24    -0.09357185    -0.09357185
   25    -0.09196512    -0.09196512
   26    -0.08634854    -0.08634854
 Orbital Energies  (V):
   27     0.87116974     0.87116974
   28     0.89488820     0.89488820
   29     0.89655832     0.89655832
   30     0.90046433     0.90046433
   31     0.91377778     0.91377778
   32     0.93394577     0.93394577
   33     0.95330544     0.95330544
   34     1.02506845     1.02506845
   35     1.03588939     1.03588939
   36     1.04539569     1.04539569
   37     1.05556962     1.05556962
   38     1.06288096     1.06288096
   39     1.06654912     1.06654912
   40     1.08506789     1.08506789
   41     1.10111533     1.10111533
   42     1.10925145     1.10925145
   43     1.13607925     1.13607925
   44     1.15516287     1.15516287
   45     1.16801643     1.16801643
   46     1.25492998     1.25492998
   47     1.27288726     1.27288726
   48     1.28930128     1.28930128
   49     1.31686115     1.31686115
   50     1.34477057     1.34477057
   51     1.39985078     1.39985078
   52     1.39985871     1.39985871
 tr(Pa)     :   26.0000000000
 tr(Pb)     :    2.0000000000
 E(core) with new P : -106.27707796
 E(HF) with new P   : -17.20831955
 Difference in Ehf  :   7.1054e-15

 Number of spin flips: 1
 Use cas_local =    0 (Canonical)
                    1 (Boys)
                    2 (Pipek-Mezey)
                    3 (ER)
 Using Boys orbitals in casman
 
 
 
Calling Get_Boys in C++
 
 
 
Orbital 22 Variance 23.61131514
Orbital 23 Variance 25.44818927
Orbital 7 Variance 26.38762592
Orbital 1 Variance 28.36629522
Orbital 24 Variance 29.17918211
Orbital 4 Variance 30.13319257
Orbital 12 Variance 32.70950964
Orbital 20 Variance 33.02809781
Orbital 6 Variance 33.05391798
Orbital 9 Variance 33.08778404
Orbital 8 Variance 33.51053329
Orbital 3 Variance 33.69281366
Orbital 16 Variance 33.77811854
Orbital 13 Variance 34.41692093
Orbital 14 Variance 35.20109176
Orbital 21 Variance 36.49875304
Orbital 2 Variance 37.76328987
Orbital 18 Variance 37.78524334
Orbital 10 Variance 38.31582659
Orbital 11 Variance 38.60638121
Orbital 5 Variance 38.94949328
Orbital 15 Variance 40.00657728
Orbital 19 Variance 42.57895491
Orbital 17 Variance 44.45287370
          ***** NUMBER OF SADDLE POINTS SO FAR = 0 ******

Initially in boys_jacobi.C before sweep, get_boys, boysval = 327.278896
In BOYS_JACOBI SWEEPS for get_boys, ending in round     6  because max_diff = 6.156666e-07


---> BEGIN 2nd Der Calculation    ******  
Guessing MaxD =  20 and MinD = 10
in get_boys.C: p = 0 guessthresh  52.1244975908 numsofar 36 MinD 10
in get_boys.C: p = 1 guessthresh  51.6244975908 numsofar 28 MinD 10
in get_boys.C: p = 2 guessthresh  51.3744975908 numsofar 10 MinD 10
DimInGuess 10 mineval  51.1244975908 guessthresh  51.3744975908
round 0 sizeofsub 10 eval0 5.051602e+01 diffeval0 1.000495e+05 length_qM 1.050645e+00 thresh 1.000000e-08
round 1 sizeofsub 11 eval0 5.005124e+01 diffeval0 4.647816e-01 length_qM 1.585144e-01 thresh 1.000000e-08
round 2 sizeofsub 12 eval0 5.005076e+01 diffeval0 4.811658e-04 length_qM 1.031026e-01 thresh 1.000000e-08
round 3 sizeofsub 13 eval0 5.004980e+01 diffeval0 9.645220e-04 length_qM 2.212943e-02 thresh 1.000000e-08
round 4 sizeofsub 14 eval0 5.004979e+01 diffeval0 6.018754e-06 length_qM 2.494580e-03 thresh 1.000000e-08
round 5 sizeofsub 15 eval0 5.004979e+01 diffeval0 1.803812e-06 length_qM 6.667962e-03 thresh 1.000000e-08
round 6 sizeofsub 16 eval0 5.004979e+01 diffeval0 1.903118e-06 length_qM 7.641428e-04 thresh 1.000000e-08
round 7 sizeofsub 17 eval0 5.004979e+01 diffeval0 5.896581e-09 length_qM 2.253652e-04 thresh 1.000000e-08
round 8 sizeofsub 18 eval0 5.004979e+01 diffeval0 7.781509e-10 length_qM 4.385300e-05 thresh 1.000000e-08
round 9 sizeofsub 19 eval0 5.004979e+01 diffeval0 8.352004e-10 length_qM 5.775101e-05 thresh 1.000000e-08
round 10 sizeofsub 20 eval0 5.004979e+01 diffeval0 1.382006e-10 length_qM 2.569251e-05 thresh 1.000000e-08
round 11 sizeofsub 11 eval0 5.004979e+01 diffeval0 4.845191e-11 length_qM 4.337636e-05 thresh 1.000000e-08
round 12 sizeofsub 12 eval0 5.004979e+01 diffeval0 5.761081e-11 length_qM 4.438253e-05 thresh 1.000000e-08
round 13 sizeofsub 13 eval0 5.004979e+01 diffeval0 2.950173e-11 length_qM 4.000907e-06 thresh 1.000000e-08
round 14 sizeofsub 14 eval0 5.004979e+01 diffeval0 7.446488e-12 length_qM 7.640378e-06 thresh 1.000000e-08
round 15 sizeofsub 15 eval0 5.004979e+01 diffeval0 3.701928e-12 length_qM 4.934293e-06 thresh 1.000000e-08
round 16 sizeofsub 16 eval0 5.004979e+01 diffeval0 8.029133e-13 length_qM 4.567016e-06 thresh 1.000000e-08
round 17 sizeofsub 17 eval0 5.004979e+01 diffeval0 8.810730e-13 length_qM 3.984966e-06 thresh 1.000000e-08
round 18 sizeofsub 18 eval0 5.004979e+01 diffeval0 6.181722e-13 length_qM 4.918176e-07 thresh 1.000000e-08
Converged to smallest eigenvalue: eval0 5.004979e+01

Success!!! No Negative Eigenvalues: Ending Get Boys in C++ ...Bye Bye
Orbital 22 Variance 2.71525585
Orbital 24 Variance 2.71587141
Orbital 18 Variance 2.73757233
Orbital 21 Variance 2.73829469
Orbital 7 Variance 2.73839549
Orbital 17 Variance 2.73912114
Orbital 19 Variance 2.75042403
Orbital 11 Variance 2.75251535
Orbital 23 Variance 2.75326002
Orbital 9 Variance 2.75445956
Orbital 8 Variance 2.75595264
Orbital 13 Variance 2.75911411
Orbital 10 Variance 2.75930288
Orbital 15 Variance 2.76033095
Orbital 12 Variance 2.76080960
Orbital 14 Variance 2.76174236
Orbital 20 Variance 2.76271318
Orbital 1 Variance 2.76493533
Orbital 16 Variance 2.76677435
Orbital 4 Variance 2.76796505
Orbital 3 Variance 2.77142907
Orbital 6 Variance 2.77176044
Orbital 5 Variance 2.77203907
Orbital 2 Variance 2.77221747
EXECUTING ORTHO_FUNC DESTRUCTOR

 Dimensions of orbital sub-spaces:    
 Number Hole Orbs:Alpha:Beta:       2    2    2
 Number Active Orbs:Alpha:Beta:    24   23    1
 Number Part Orbs:Alpha:Beta:      26    0    0

 Dimensions in SF-RAS-hp calculation: 
 Number of active space determinants:  576
 Number of hole space determinants:    13296
 Number of part space determinants:    172848
 Number of hole-part determinants:     4021108
 Total 1x space:                       186720
 Total singles space:                  4207828
 REM_MEM_TOT: 2000
 Memory Used: 0
 Memory Left: 2000
 Memory Need: 18
 Constructing 1e MO integrals
 Form (P|Q)**(-1/2)...
 Job number = 66, Threshold = 1.00E-12
Integral type ranges set in mkLRange.C for JobNum: 66  <2-7|2-7>
Symmetry turned off temporarily
Storing 305.22% of integrals
Total number of integrals generated =           72147
Symmetry turned back on
 Forming (pq|P)...
 Forming Active-Active (aa|P) integrals...

 Entering first-index batching code with I1Strt =    3 batch size =   24
 Job number = 65, Threshold = 1.00E-12
Integral type ranges set in mkLRange.C for JobNum: 65  <1-1|2-7>
Symmetry turned off temporarily
Storing 305.22% of integrals
Total number of integrals generated =          412398
Symmetry turned back on
 Forming Active-Active B integrals...
 Contracting B matrices to form 2e integrals. 
 Forming 2J-K over o,v with exact integrals
 Calling AOints... Job number = 22, Threshold = 1.00E-12
Integral type ranges set in mkLRange.C for JobNum: 22  <1-1|1-1>
Storing 305.22% of integrals
Total number of integrals generated =          529725
 done.

 ROHF energy found on disk: 
 E(ROHF):         -17.20831955
-17.20831955
 First 10 Diagonal elements of H: 
 11111111111111111111111_ | 1_______________________        -16.66056989
 11111111111111111111111_ | _1______________________        -16.66028376
 11111111111111111111111_ | __1_____________________        -16.65853579
 11111111111111111111111_ | ___1____________________        -16.80874213
 11111111111111111111111_ | ____1___________________        -16.65867278
 11111111111111111111111_ | _____1__________________        -16.65911814
 11111111111111111111111_ | ______1_________________        -16.72747293
 11111111111111111111111_ | _______1________________        -16.68877911
 11111111111111111111111_ | ________1_______________        -16.71278413
 11111111111111111111111_ | _________1______________        -16.68164439
 Fill S2_CAS Matrix...  done.
 Fill H_CAS Matrix...  done.

 Diagonalizing H_CAS 
 Entering cast_sfcas_to_sfcis
 ===================================================================
 Theory           State:          Energy (au)       (eV)       <S2>
 -------------------------------------------------------------------
 SF-CAS               1:       -17.2736910820     0.0000   132.0000
 SF-CAS               2:       -17.2720258982     0.0453   132.0000
 SF-CAS               3:       -17.2708665590     0.0769   132.0000
 SF-CAS               4:       -17.2697836971     0.1063   132.0000
 SF-CAS               5:       -17.2693112077     0.1192   132.0000
 SF-CAS               6:       -17.2684505269     0.1426   132.0000
 SF-CAS               7:       -17.2680804525     0.1527   132.0000
 SF-CAS               8:       -17.2677727927     0.1610   132.0000
 SF-CAS               9:       -17.2672441763     0.1754   132.0000
 SF-CAS              10:       -17.2670346700     0.1811   132.0000
 SF-CAS              11:       -17.2665728320     0.1937   132.0000
 SF-CAS              12:       -17.2662817548     0.2016   132.0000
 SF-CAS              13:       -17.2661253556     0.2059   132.0000
 SF-CAS              14:       -17.2658972698     0.2121   132.0000
 SF-CAS              15:       -17.2657599270     0.2158   132.0000
 SF-CAS              16:       -17.2656750631     0.2181   132.0000
 SF-CAS              17:       -17.2655795336     0.2207   132.0000
 SF-CAS              18:       -17.2653631195     0.2266   132.0000
 SF-CAS              19:       -17.2133874315     1.6410   132.0000
 SF-CAS              20:       -17.2129387874     1.6532   132.0000
 SF-CAS              21:       -17.2127350740     1.6587   132.0000
 SF-CAS              22:       -17.2116153546     1.6892   132.0000
 SF-CAS              23:       -17.2113123618     1.6974   132.0000
 SF-CAS              24:       -17.2083195484     1.7789   156.0000
 SF-CAS              25:       -16.9754279381     8.1162   132.0000
 SF-CAS              26:       -16.9715079199     8.2229   132.0000
 SF-CAS              27:       -16.9703635508     8.2540   132.0000
 SF-CAS              28:       -16.9685912389     8.3023   132.0000
 SF-CAS              29:       -16.9679440296     8.3199   132.0000
 SF-CAS              30:       -16.9655342293     8.3855   132.0000
 SF-CAS              31:       -16.9638951987     8.4301   132.0000
 SF-CAS              32:       -16.9616100255     8.4922   132.0000
 SF-CAS              33:       -16.9613642726     8.4989   132.0000
 SF-CAS              34:       -16.9586285986     8.5734   132.0000
 SF-CAS              35:       -16.9577025063     8.5986   132.0000
 SF-CAS              36:       -16.9561611089     8.6405   132.0000
 SF-CAS              37:       -16.9556383297     8.6547   132.0000
 SF-CAS              38:       -16.9544931300     8.6859   132.0000
 SF-CAS              39:       -16.9543734942     8.6892   132.0000
 SF-CAS              40:       -16.9535970746     8.7103   132.0000
 SF-CAS              41:       -16.9512339287     8.7746   132.0000
 SF-CAS              42:       -16.9504419096     8.7961   132.0000
 SF-CAS              43:       -16.9488612425     8.8392   132.0000
 SF-CAS              44:       -16.9479337318     8.8644   132.0000
 SF-CAS              45:       -16.9472766523     8.8823   132.0000
 SF-CAS              46:       -16.9450038615     8.9441   132.0000
 SF-CAS              47:       -16.9447584641     8.9508   132.0000
 SF-CAS              48:       -16.9444942254     8.9580   132.0000
 SF-CAS              49:       -16.9441854957     8.9664   132.0000
 SF-CAS              50:       -16.9425305512     9.0114   132.0000
 SF-CAS              51:       -16.9418545476     9.0298   132.0000
 SF-CAS              52:       -16.9369115761     9.1643   132.0000
 SF-CAS              53:       -16.9362509761     9.1823   132.0000
 SF-CAS              54:       -16.9349053802     9.2189   132.0000
 SF-CAS              55:       -16.9342103028     9.2378   132.0000
 SF-CAS              56:       -16.9331393845     9.2670   132.0000
 SF-CAS              57:       -16.9317335815     9.3052   132.0000
 SF-CAS              58:       -16.9309450541     9.3267   132.0000
 SF-CAS              59:       -16.9303938106     9.3417   132.0000
 SF-CAS              60:       -16.9288318729     9.3842   132.0000
 SF-CAS              61:       -16.9266795151     9.4428   132.0000
 SF-CAS              62:       -16.9248778083     9.4918   132.0000
 SF-CAS              63:       -16.9241820526     9.5107   132.0000
 SF-CAS              64:       -16.9229882736     9.5432   132.0000
 SF-CAS              65:       -16.9229010730     9.5456   132.0000
 SF-CAS              66:       -16.9219577457     9.5712   132.0000
 SF-CAS              67:       -16.9213262023     9.5884   132.0000
 SF-CAS              68:       -16.9178724632     9.6824   132.0000
 SF-CAS              69:       -16.9165274320     9.7190   132.0000
 SF-CAS              70:       -16.9152857368     9.7528   132.0000
 SF-CAS              71:       -16.9144379142     9.7759   132.0000
 SF-CAS              72:       -16.9136893134     9.7962   132.0000
 SF-CAS              73:       -16.9128319015     9.8196   132.0000
 SF-CAS              74:       -16.9112078968     9.8638   132.0000
 SF-CAS              75:       -16.9103914914     9.8860   132.0000
 SF-CAS              76:       -16.9089185791     9.9261   132.0000
 SF-CAS              77:       -16.9079566428     9.9522   132.0000
 SF-CAS              78:       -16.9075413275     9.9635   132.0000
 SF-CAS              79:       -16.9059145685    10.0078   132.0000
 SF-CAS              80:       -16.9046882083    10.0412   132.0000
 SF-CAS              81:       -16.9035948762    10.0709   132.0000
 SF-CAS              82:       -16.9030212420    10.0865   132.0000
 SF-CAS              83:       -16.9019720042    10.1151   132.0000
 SF-CAS              84:       -16.9009411748    10.1431   132.0000
 SF-CAS              85:       -16.8996124429    10.1793   132.0000
 SF-CAS              86:       -16.8986291608    10.2061   132.0000
 SF-CAS              87:       -16.8973221349    10.2416   132.0000
 SF-CAS              88:       -16.8967058339    10.2584   132.0000
 SF-CAS              89:       -16.8957213521    10.2852   132.0000
 SF-CAS              90:       -16.8941717286    10.3273   132.0000
 SF-CAS              91:       -16.8928413724    10.3635   132.0000
 SF-CAS              92:       -16.8923268455    10.3776   132.0000
 SF-CAS              93:       -16.8907344673    10.4209   132.0000
 SF-CAS              94:       -16.8900248027    10.4402   132.0000
 SF-CAS              95:       -16.8883572457    10.4856   132.0000
 SF-CAS              96:       -16.8881283306    10.4918   132.0000
 SF-CAS              97:       -16.8866183167    10.5329   132.0000
 SF-CAS              98:       -16.8851491429    10.5729   132.0000
 SF-CAS              99:       -16.8838159643    10.6091   132.0000
 SF-CAS             100:       -16.8834064954    10.6203   132.0000
 SF-CAS             101:       -16.8823636368    10.6487   132.0000
 SF-CAS             102:       -16.8808126225    10.6909   132.0000
 SF-CAS             103:       -16.8798445345    10.7172   132.0000
 SF-CAS             104:       -16.8792610210    10.7331   132.0000
 SF-CAS             105:       -16.8781271001    10.7639   132.0000
 SF-CAS             106:       -16.8775604914    10.7794   132.0000
 SF-CAS             107:       -16.8753150600    10.8405   132.0000
 SF-CAS             108:       -16.8733128190    10.8950   132.0000
 SF-CAS             109:       -16.8728465718    10.9076   132.0000
 SF-CAS             110:       -16.8711618561    10.9535   132.0000
 SF-CAS             111:       -16.8702686266    10.9778   132.0000
 SF-CAS             112:       -16.8695347578    10.9978   132.0000
 SF-CAS             113:       -16.8676813267    11.0482   132.0000
 SF-CAS             114:       -16.8672361766    11.0603   132.0000
 SF-CAS             115:       -16.8661821742    11.0890   132.0000
 SF-CAS             116:       -16.8616909782    11.2112   132.0000
 SF-CAS             117:       -16.8587568732    11.2910   132.0000
 SF-CAS             118:       -16.8578722359    11.3151   132.0000
 SF-CAS             119:       -16.8549366190    11.3950   132.0000
 SF-CAS             120:       -16.8540944358    11.4179   132.0000
 SF-CAS             121:       -16.8510001627    11.5021   132.0000
 SF-CAS             122:       -16.8476463875    11.5934   132.0000
 SF-CAS             123:       -16.8428046761    11.7251   132.0000
 SF-CAS             124:       -16.8410416947    11.7731   132.0000
 SF-CAS             125:       -16.8404855110    11.7882   132.0000
 SF-CAS             126:       -16.8396600991    11.8107   132.0000
 SF-CAS             127:       -16.8388829347    11.8318   132.0000
 SF-CAS             128:       -16.8385238306    11.8416   132.0000
 SF-CAS             129:       -16.8366255108    11.8933   132.0000
 SF-CAS             130:       -16.8361083736    11.9073   132.0000
 SF-CAS             131:       -16.8354110984    11.9263   132.0000
 SF-CAS             132:       -16.8330001056    11.9919   132.0000
 SF-CAS             133:       -16.8303505829    12.0640   132.0000
 SF-CAS             134:       -16.8301508439    12.0695   132.0000
 SF-CAS             135:       -16.8301063477    12.0707   132.0000
 SF-CAS             136:       -16.8294161553    12.0895   132.0000
 SF-CAS             137:       -16.8285784541    12.1122   132.0000
 SF-CAS             138:       -16.8278880760    12.1310   132.0000
 SF-CAS             139:       -16.8275697522    12.1397   132.0000
 SF-CAS             140:       -16.8271001032    12.1525   132.0000
 SF-CAS             141:       -16.8266134535    12.1657   132.0000
 SF-CAS             142:       -16.8260628520    12.1807   132.0000
 SF-CAS             143:       -16.8250281992    12.2089   132.0000
 SF-CAS             144:       -16.8243538967    12.2272   132.0000
 SF-CAS             145:       -16.8237138223    12.2446   132.0000
 SF-CAS             146:       -16.8231361115    12.2603   132.0000
 SF-CAS             147:       -16.8223197448    12.2826   132.0000
 SF-CAS             148:       -16.8222408421    12.2847   132.0000
 SF-CAS             149:       -16.8218159426    12.2963   132.0000
 SF-CAS             150:       -16.8213237346    12.3097   132.0000
 SF-CAS             151:       -16.8209118918    12.3209   132.0000
 SF-CAS             152:       -16.8205503419    12.3307   132.0000
 SF-CAS             153:       -16.8204246301    12.3341   132.0000
 SF-CAS             154:       -16.8199705243    12.3465   132.0000
 SF-CAS             155:       -16.8194473421    12.3607   132.0000
 SF-CAS             156:       -16.8189470347    12.3743   132.0000
 SF-CAS             157:       -16.8182273989    12.3939   132.0000
 SF-CAS             158:       -16.8178054537    12.4054   132.0000
 SF-CAS             159:       -16.8176863965    12.4086   132.0000
 SF-CAS             160:       -16.8160608359    12.4529   132.0000
 SF-CAS             161:       -16.8157589011    12.4611   132.0000
 SF-CAS             162:       -16.8149441375    12.4833   132.0000
 SF-CAS             163:       -16.8141235619    12.5056   132.0000
 SF-CAS             164:       -16.8137428872    12.5159   132.0000
 SF-CAS             165:       -16.8131619690    12.5318   132.0000
 SF-CAS             166:       -16.8129117094    12.5386   132.0000
 SF-CAS             167:       -16.8119119195    12.5658   132.0000
 SF-CAS             168:       -16.8059433422    12.7282   132.0000
 SF-CAS             169:       -16.7811620415    13.4025   132.0000
 SF-CAS             170:       -16.7805488389    13.4192   132.0000
 SF-CAS             171:       -16.7723462648    13.6424   132.0000
 SF-CAS             172:       -16.7648155213    13.8473   132.0000
 SF-CAS             173:       -16.7604740601    13.9655   132.0000
 SF-CAS             174:       -16.7571326793    14.0564   132.0000
 SF-CAS             175:       -16.7560059706    14.0871   132.0000
 SF-CAS             176:       -16.7532102270    14.1631   132.0000
 SF-CAS             177:       -16.7526316724    14.1789   132.0000
 SF-CAS             178:       -16.7507325632    14.2306   132.0000
 SF-CAS             179:       -16.7497711188    14.2567   132.0000
 SF-CAS             180:       -16.7490375345    14.2767   132.0000
 SF-CAS             181:       -16.7484131348    14.2937   132.0000
 SF-CAS             182:       -16.7474537887    14.3198   132.0000
 SF-CAS             183:       -16.7466956257    14.3404   132.0000
 SF-CAS             184:       -16.7459299002    14.3613   132.0000
 SF-CAS             185:       -16.7445014602    14.4001   132.0000
 SF-CAS             186:       -16.7429983166    14.4410   132.0000
 SF-CAS             187:       -16.7414677947    14.4827   132.0000
 SF-CAS             188:       -16.7411133616    14.4923   132.0000
 SF-CAS             189:       -16.7400405212    14.5215   132.0000
 SF-CAS             190:       -16.7396600571    14.5319   132.0000
 SF-CAS             191:       -16.7375545884    14.5892   132.0000
 SF-CAS             192:       -16.7359577047    14.6326   132.0000
 SF-CAS             193:       -16.7344951166    14.6724   132.0000
 SF-CAS             194:       -16.7331551696    14.7089   132.0000
 SF-CAS             195:       -16.7325880948    14.7243   132.0000
 SF-CAS             196:       -16.7318217782    14.7452   132.0000
 SF-CAS             197:       -16.7313804183    14.7572   132.0000
 SF-CAS             198:       -16.7303432025    14.7854   132.0000
 SF-CAS             199:       -16.7297851658    14.8006   132.0000
 SF-CAS             200:       -16.7290875182    14.8196   132.0000
 SF-CAS             201:       -16.7279627829    14.8502   132.0000
 SF-CAS             202:       -16.7276582434    14.8585   132.0000
 SF-CAS             203:       -16.7266074151    14.8870   132.0000
 SF-CAS             204:       -16.7260222542    14.9030   132.0000
 SF-CAS             205:       -16.7251915382    14.9256   132.0000
 SF-CAS             206:       -16.7248202036    14.9357   132.0000
 SF-CAS             207:       -16.7234541227    14.9729   132.0000
 SF-CAS             208:       -16.7230227417    14.9846   132.0000
 SF-CAS             209:       -16.7224050958    15.0014   132.0000
 SF-CAS             210:       -16.7217993984    15.0179   132.0000
 SF-CAS             211:       -16.7204453152    15.0547   132.0000
 SF-CAS             212:       -16.7202082882    15.0612   132.0000
 SF-CAS             213:       -16.7191515929    15.0899   132.0000
 SF-CAS             214:       -16.7181348433    15.1176   132.0000
 SF-CAS             215:       -16.7175437729    15.1337   132.0000
 SF-CAS             216:       -16.7173643072    15.1386   132.0000
 SF-CAS             217:       -16.7161773232    15.1709   132.0000
 SF-CAS             218:       -16.7160164877    15.1752   132.0000
 SF-CAS             219:       -16.7155581274    15.1877   132.0000
 SF-CAS             220:       -16.7150512463    15.2015   132.0000
 SF-CAS             221:       -16.7143299748    15.2211   132.0000
 SF-CAS             222:       -16.7133582367    15.2476   132.0000
 SF-CAS             223:       -16.7131264616    15.2539   132.0000
 SF-CAS             224:       -16.7125247444    15.2703   132.0000
 SF-CAS             225:       -16.7121087253    15.2816   132.0000
 SF-CAS             226:       -16.7113811133    15.3014   132.0000
 SF-CAS             227:       -16.7108504100    15.3158   132.0000
 SF-CAS             228:       -16.7108323122    15.3163   132.0000
 SF-CAS             229:       -16.7100632164    15.3372   132.0000
 SF-CAS             230:       -16.7091609053    15.3618   132.0000
 SF-CAS             231:       -16.7088663007    15.3698   132.0000
 SF-CAS             232:       -16.7085051017    15.3796   132.0000
 SF-CAS             233:       -16.7077028862    15.4015   132.0000
 SF-CAS             234:       -16.7073512688    15.4110   132.0000
 SF-CAS             235:       -16.7066662110    15.4297   132.0000
 SF-CAS             236:       -16.7058197212    15.4527   132.0000
 SF-CAS             237:       -16.7054366858    15.4631   132.0000
 SF-CAS             238:       -16.7044001745    15.4913   132.0000
 SF-CAS             239:       -16.7042096154    15.4965   132.0000
 SF-CAS             240:       -16.7036688468    15.5112   132.0000
 SF-CAS             241:       -16.7033450595    15.5201   132.0000
 SF-CAS             242:       -16.7025807830    15.5409   132.0000
 SF-CAS             243:       -16.7020553101    15.5552   132.0000
 SF-CAS             244:       -16.7013251694    15.5750   132.0000
 SF-CAS             245:       -16.7004111271    15.5999   132.0000
 SF-CAS             246:       -16.7000009364    15.6111   132.0000
 SF-CAS             247:       -16.6994842483    15.6251   132.0000
 SF-CAS             248:       -16.6991077526    15.6354   132.0000
 SF-CAS             249:       -16.6988218225    15.6431   132.0000
 SF-CAS             250:       -16.6984105241    15.6543   132.0000
 SF-CAS             251:       -16.6981011431    15.6628   132.0000
 SF-CAS             252:       -16.6974763111    15.6798   132.0000
 SF-CAS             253:       -16.6973692192    15.6827   132.0000
 SF-CAS             254:       -16.6964500564    15.7077   132.0000
 SF-CAS             255:       -16.6961580053    15.7156   132.0000
 SF-CAS             256:       -16.6957253328    15.7274   132.0000
 SF-CAS             257:       -16.6950871536    15.7448   132.0000
 SF-CAS             258:       -16.6945638672    15.7590   132.0000
 SF-CAS             259:       -16.6943097757    15.7659   132.0000
 SF-CAS             260:       -16.6939628876    15.7754   132.0000
 SF-CAS             261:       -16.6937709577    15.7806   132.0000
 SF-CAS             262:       -16.6931684112    15.7970   132.0000
 SF-CAS             263:       -16.6924564964    15.8164   132.0000
 SF-CAS             264:       -16.6919913545    15.8290   132.0000
 SF-CAS             265:       -16.6914730644    15.8431   132.0000
 SF-CAS             266:       -16.6913024334    15.8478   132.0000
 SF-CAS             267:       -16.6911678590    15.8514   132.0000
 SF-CAS             268:       -16.6906635843    15.8651   132.0000
 SF-CAS             269:       -16.6900194272    15.8827   132.0000
 SF-CAS             270:       -16.6894762413    15.8974   132.0000
 SF-CAS             271:       -16.6890332841    15.9095   132.0000
 SF-CAS             272:       -16.6884342577    15.9258   132.0000
 SF-CAS             273:       -16.6881190861    15.9344   132.0000
 SF-CAS             274:       -16.6876710369    15.9466   132.0000
 SF-CAS             275:       -16.6876159095    15.9481   132.0000
 SF-CAS             276:       -16.6870242665    15.9642   132.0000
 SF-CAS             277:       -16.6863951227    15.9813   132.0000
 SF-CAS             278:       -16.6857767327    15.9981   132.0000
 SF-CAS             279:       -16.6852380498    16.0128   132.0000
 SF-CAS             280:       -16.6846459331    16.0289   132.0000
 SF-CAS             281:       -16.6843436746    16.0371   132.0000
 SF-CAS             282:       -16.6838136523    16.0515   132.0000
 SF-CAS             283:       -16.6837212228    16.0541   132.0000
 SF-CAS             284:       -16.6833293321    16.0647   132.0000
 SF-CAS             285:       -16.6831699828    16.0691   132.0000
 SF-CAS             286:       -16.6823230229    16.0921   132.0000
 SF-CAS             287:       -16.6820795680    16.0987   132.0000
 SF-CAS             288:       -16.6817248361    16.1084   132.0000
 SF-CAS             289:       -16.6809690001    16.1289   132.0000
 SF-CAS             290:       -16.6806102790    16.1387   132.0000
 SF-CAS             291:       -16.6798094628    16.1605   132.0000
 SF-CAS             292:       -16.6795359104    16.1679   132.0000
 SF-CAS             293:       -16.6792740607    16.1751   132.0000
 SF-CAS             294:       -16.6789054700    16.1851   132.0000
 SF-CAS             295:       -16.6784969644    16.1962   132.0000
 SF-CAS             296:       -16.6780865583    16.2074   132.0000
 SF-CAS             297:       -16.6777073345    16.2177   132.0000
 SF-CAS             298:       -16.6775380546    16.2223   132.0000
 SF-CAS             299:       -16.6772111397    16.2312   132.0000
 SF-CAS             300:       -16.6769599294    16.2380   132.0000
 SF-CAS             301:       -16.6766274637    16.2471   132.0000
 SF-CAS             302:       -16.6755410382    16.2766   132.0000
 SF-CAS             303:       -16.6751694802    16.2868   132.0000
 SF-CAS             304:       -16.6745117807    16.3047   132.0000
 SF-CAS             305:       -16.6740238158    16.3179   132.0000
 SF-CAS             306:       -16.6736182007    16.3290   132.0000
 SF-CAS             307:       -16.6733425515    16.3365   132.0000
 SF-CAS             308:       -16.6729556657    16.3470   132.0000
 SF-CAS             309:       -16.6726324851    16.3558   132.0000
 SF-CAS             310:       -16.6720231951    16.3724   132.0000
 SF-CAS             311:       -16.6716810501    16.3817   132.0000
 SF-CAS             312:       -16.6709828910    16.4007   132.0000
 SF-CAS             313:       -16.6704022402    16.4165   132.0000
 SF-CAS             314:       -16.6703311557    16.4184   132.0000
 SF-CAS             315:       -16.6700266167    16.4267   132.0000
 SF-CAS             316:       -16.6698218148    16.4323   132.0000
 SF-CAS             317:       -16.6692667084    16.4474   132.0000
 SF-CAS             318:       -16.6690745042    16.4526   132.0000
 SF-CAS             319:       -16.6685603089    16.4666   132.0000
 SF-CAS             320:       -16.6682827300    16.4742   132.0000
 SF-CAS             321:       -16.6677798054    16.4878   132.0000
 SF-CAS             322:       -16.6675412022    16.4943   132.0000
 SF-CAS             323:       -16.6670075675    16.5089   132.0000
 SF-CAS             324:       -16.6668470203    16.5132   132.0000
 SF-CAS             325:       -16.6665987412    16.5200   132.0000
 SF-CAS             326:       -16.6661017054    16.5335   132.0000
 SF-CAS             327:       -16.6656209671    16.5466   132.0000
 SF-CAS             328:       -16.6652581148    16.5565   132.0000
 SF-CAS             329:       -16.6649721997    16.5642   132.0000
 SF-CAS             330:       -16.6647239590    16.5710   132.0000
 SF-CAS             331:       -16.6637717851    16.5969   132.0000
 SF-CAS             332:       -16.6636086736    16.6013   132.0000
 SF-CAS             333:       -16.6631423413    16.6140   132.0000
 SF-CAS             334:       -16.6628293411    16.6226   132.0000
 SF-CAS             335:       -16.6625538559    16.6301   132.0000
 SF-CAS             336:       -16.6620483080    16.6438   132.0000
 SF-CAS             337:       -16.6617939210    16.6507   132.0000
 SF-CAS             338:       -16.6616749029    16.6540   132.0000
 SF-CAS             339:       -16.6611175320    16.6691   132.0000
 SF-CAS             340:       -16.6608557416    16.6763   132.0000
 SF-CAS             341:       -16.6601888182    16.6944   132.0000
 SF-CAS             342:       -16.6599255819    16.7016   132.0000
 SF-CAS             343:       -16.6595003045    16.7131   132.0000
 SF-CAS             344:       -16.6593868269    16.7162   132.0000
 SF-CAS             345:       -16.6587028653    16.7348   132.0000
 SF-CAS             346:       -16.6581847282    16.7489   132.0000
 SF-CAS             347:       -16.6580114797    16.7537   132.0000
 SF-CAS             348:       -16.6576402842    16.7638   132.0000
 SF-CAS             349:       -16.6571625051    16.7768   132.0000
 SF-CAS             350:       -16.6567609316    16.7877   132.0000
 SF-CAS             351:       -16.6564361388    16.7965   132.0000
 SF-CAS             352:       -16.6560025208    16.8083   132.0000
 SF-CAS             353:       -16.6557176568    16.8161   132.0000
 SF-CAS             354:       -16.6553958044    16.8248   132.0000
 SF-CAS             355:       -16.6552858342    16.8278   132.0000
 SF-CAS             356:       -16.6546251229    16.8458   132.0000
 SF-CAS             357:       -16.6543085013    16.8544   132.0000
 SF-CAS             358:       -16.6538968702    16.8656   132.0000
 SF-CAS             359:       -16.6535986181    16.8737   132.0000
 SF-CAS             360:       -16.6528459022    16.8942   132.0000
 SF-CAS             361:       -16.6525181248    16.9031   132.0000
 SF-CAS             362:       -16.6522507367    16.9104   132.0000
 SF-CAS             363:       -16.6520517077    16.9158   132.0000
 SF-CAS             364:       -16.6516194790    16.9276   132.0000
 SF-CAS             365:       -16.6512221027    16.9384   132.0000
 SF-CAS             366:       -16.6510268868    16.9437   132.0000
 SF-CAS             367:       -16.6505716427    16.9561   132.0000
 SF-CAS             368:       -16.6498614775    16.9754   132.0000
 SF-CAS             369:       -16.6496359452    16.9816   132.0000
 SF-CAS             370:       -16.6493372664    16.9897   132.0000
 SF-CAS             371:       -16.6490879619    16.9965   132.0000
 SF-CAS             372:       -16.6486744662    17.0077   132.0000
 SF-CAS             373:       -16.6483535678    17.0165   132.0000
 SF-CAS             374:       -16.6478755657    17.0295   132.0000
 SF-CAS             375:       -16.6471484667    17.0493   132.0000
 SF-CAS             376:       -16.6467109004    17.0612   132.0000
 SF-CAS             377:       -16.6465167057    17.0664   132.0000
 SF-CAS             378:       -16.6463782344    17.0702   132.0000
 SF-CAS             379:       -16.6458102803    17.0857   132.0000
 SF-CAS             380:       -16.6456031543    17.0913   132.0000
 SF-CAS             381:       -16.6448166471    17.1127   132.0000
 SF-CAS             382:       -16.6446100636    17.1183   132.0000
 SF-CAS             383:       -16.6442602933    17.1279   132.0000
 SF-CAS             384:       -16.6439307896    17.1368   132.0000
 SF-CAS             385:       -16.6429150471    17.1645   132.0000
 SF-CAS             386:       -16.6424739762    17.1765   132.0000
 SF-CAS             387:       -16.6422383191    17.1829   132.0000
 SF-CAS             388:       -16.6415067999    17.2028   132.0000
 SF-CAS             389:       -16.6404393525    17.2318   132.0000
 SF-CAS             390:       -16.6402384605    17.2373   132.0000
 SF-CAS             391:       -16.6400720018    17.2418   132.0000
 SF-CAS             392:       -16.6393437063    17.2616   132.0000
 SF-CAS             393:       -16.6390569914    17.2694   132.0000
 SF-CAS             394:       -16.6386483280    17.2806   132.0000
 SF-CAS             395:       -16.6380760296    17.2961   132.0000
 SF-CAS             396:       -16.6378698550    17.3017   132.0000
 SF-CAS             397:       -16.6369536771    17.3267   132.0000
 SF-CAS             398:       -16.6363860377    17.3421   132.0000
 SF-CAS             399:       -16.6357979298    17.3581   132.0000
 SF-CAS             400:       -16.6354423811    17.3678   132.0000
 SF-CAS             401:       -16.6348240594    17.3846   132.0000
 SF-CAS             402:       -16.6346905513    17.3883   132.0000
 SF-CAS             403:       -16.6343527015    17.3975   132.0000
 SF-CAS             404:       -16.6339418163    17.4086   132.0000
 SF-CAS             405:       -16.6330632497    17.4325   132.0000
 SF-CAS             406:       -16.6326004908    17.4451   132.0000
 SF-CAS             407:       -16.6323147209    17.4529   132.0000
 SF-CAS             408:       -16.6317344514    17.4687   132.0000
 SF-CAS             409:       -16.6314824319    17.4756   132.0000
 SF-CAS             410:       -16.6302494531    17.5091   132.0000
 SF-CAS             411:       -16.6298802817    17.5192   132.0000
 SF-CAS             412:       -16.6296897985    17.5243   132.0000
 SF-CAS             413:       -16.6291834835    17.5381   132.0000
 SF-CAS             414:       -16.6282325432    17.5640   132.0000
 SF-CAS             415:       -16.6276525909    17.5798   132.0000
 SF-CAS             416:       -16.6270345163    17.5966   132.0000
 SF-CAS             417:       -16.6264594086    17.6122   132.0000
 SF-CAS             418:       -16.6262112284    17.6190   132.0000
 SF-CAS             419:       -16.6260851115    17.6224   132.0000
 SF-CAS             420:       -16.6251858220    17.6469   132.0000
 SF-CAS             421:       -16.6245000801    17.6656   132.0000
 SF-CAS             422:       -16.6237420509    17.6862   132.0000
 SF-CAS             423:       -16.6230388755    17.7053   132.0000
 SF-CAS             424:       -16.6225442982    17.7188   132.0000
 SF-CAS             425:       -16.6223179178    17.7249   132.0000
 SF-CAS             426:       -16.6216640075    17.7427   132.0000
 SF-CAS             427:       -16.6208891135    17.7638   132.0000
 SF-CAS             428:       -16.6197814035    17.7940   132.0000
 SF-CAS             429:       -16.6192442990    17.8086   132.0000
 SF-CAS             430:       -16.6185234725    17.8282   132.0000
 SF-CAS             431:       -16.6175463450    17.8548   132.0000
 SF-CAS             432:       -16.6174488235    17.8574   132.0000
 SF-CAS             433:       -16.6169025194    17.8723   132.0000
 SF-CAS             434:       -16.6164349975    17.8850   132.0000
 SF-CAS             435:       -16.6160307229    17.8960   132.0000
 SF-CAS             436:       -16.6153762781    17.9138   132.0000
 SF-CAS             437:       -16.6150899796    17.9216   132.0000
 SF-CAS             438:       -16.6143491861    17.9418   132.0000
 SF-CAS             439:       -16.6133045495    17.9702   132.0000
 SF-CAS             440:       -16.6131238879    17.9751   132.0000
 SF-CAS             441:       -16.6121663949    18.0012   132.0000
 SF-CAS             442:       -16.6119113863    18.0081   132.0000
 SF-CAS             443:       -16.6115567288    18.0178   132.0000
 SF-CAS             444:       -16.6109741715    18.0336   132.0000
 SF-CAS             445:       -16.6105465097    18.0453   132.0000
 SF-CAS             446:       -16.6101199461    18.0569   132.0000
 SF-CAS             447:       -16.6099036906    18.0628   132.0000
 SF-CAS             448:       -16.6088578018    18.0912   132.0000
 SF-CAS             449:       -16.6086407379    18.0971   132.0000
 SF-CAS             450:       -16.6082629046    18.1074   132.0000
 SF-CAS             451:       -16.6080874674    18.1122   132.0000
 SF-CAS             452:       -16.6074126681    18.1305   132.0000
 SF-CAS             453:       -16.6068853863    18.1449   132.0000
 SF-CAS             454:       -16.6066289404    18.1519   132.0000
 SF-CAS             455:       -16.6063290958    18.1600   132.0000
 SF-CAS             456:       -16.6059571941    18.1701   132.0000
 SF-CAS             457:       -16.6052537816    18.1893   132.0000
 SF-CAS             458:       -16.6045790958    18.2076   132.0000
 SF-CAS             459:       -16.6041376642    18.2197   132.0000
 SF-CAS             460:       -16.6039089355    18.2259   132.0000
 SF-CAS             461:       -16.6028649578    18.2543   132.0000
 SF-CAS             462:       -16.6025018653    18.2642   132.0000
 SF-CAS             463:       -16.6018861259    18.2809   132.0000
 SF-CAS             464:       -16.6016099826    18.2884   132.0000
 SF-CAS             465:       -16.6012688582    18.2977   132.0000
 SF-CAS             466:       -16.6002030762    18.3267   132.0000
 SF-CAS             467:       -16.5995283833    18.3451   132.0000
 SF-CAS             468:       -16.5986091220    18.3701   132.0000
 SF-CAS             469:       -16.5985156769    18.3726   132.0000
 SF-CAS             470:       -16.5980815145    18.3845   132.0000
 SF-CAS             471:       -16.5968478394    18.4180   132.0000
 SF-CAS             472:       -16.5963277570    18.4322   132.0000
 SF-CAS             473:       -16.5955744611    18.4527   132.0000
 SF-CAS             474:       -16.5945838376    18.4796   132.0000
 SF-CAS             475:       -16.5931009476    18.5200   132.0000
 SF-CAS             476:       -16.5920712757    18.5480   132.0000
 SF-CAS             477:       -16.5915766437    18.5615   132.0000
 SF-CAS             478:       -16.5908010032    18.5826   132.0000
 SF-CAS             479:       -16.5907978008    18.5827   132.0000
 SF-CAS             480:       -16.5898273193    18.6091   132.0000
 SF-CAS             481:       -16.5895720940    18.6160   132.0000
 SF-CAS             482:       -16.5889218365    18.6337   132.0000
 SF-CAS             483:       -16.5877394555    18.6659   132.0000
 SF-CAS             484:       -16.5873705139    18.6759   132.0000
 SF-CAS             485:       -16.5847714024    18.7466   132.0000
 SF-CAS             486:       -16.5842116360    18.7619   132.0000
 SF-CAS             487:       -16.4978855480    21.1109   132.0000
 SF-CAS             488:       -16.4929728917    21.2446   132.0000
 SF-CAS             489:       -16.4899150550    21.3278   132.0000
 SF-CAS             490:       -16.4880821371    21.3777   132.0000
 SF-CAS             491:       -16.4858888480    21.4374   132.0000
 SF-CAS             492:       -16.4827227953    21.5236   132.0000
 SF-CAS             493:       -16.4753798625    21.7234   132.0000
 SF-CAS             494:       -16.4718260017    21.8201   132.0000
 SF-CAS             495:       -16.4707328472    21.8498   132.0000
 SF-CAS             496:       -16.4678131874    21.9293   132.0000
 SF-CAS             497:       -16.4662806275    21.9710   132.0000
 SF-CAS             498:       -16.4644421415    22.0210   132.0000
 SF-CAS             499:       -16.4639262990    22.0350   132.0000
 SF-CAS             500:       -16.4605823243    22.1260   132.0000
 SF-CAS             501:       -16.4595628180    22.1538   132.0000
 SF-CAS             502:       -16.4566000269    22.2344   132.0000
 SF-CAS             503:       -16.4546486984    22.2875   132.0000
 SF-CAS             504:       -16.4532336629    22.3260   132.0000
 SF-CAS             505:       -16.4506397183    22.3966   132.0000
 SF-CAS             506:       -16.4499814440    22.4145   132.0000
 SF-CAS             507:       -16.4495222460    22.4270   132.0000
 SF-CAS             508:       -16.4489791255    22.4418   132.0000
 SF-CAS             509:       -16.4479486107    22.4698   132.0000
 SF-CAS             510:       -16.4468959925    22.4985   132.0000
 SF-CAS             511:       -16.4462253907    22.5167   132.0000
 SF-CAS             512:       -16.4439841095    22.5777   132.0000
 SF-CAS             513:       -16.4432803017    22.5968   132.0000
 SF-CAS             514:       -16.4420586704    22.6301   132.0000
 SF-CAS             515:       -16.4414644660    22.6463   132.0000
 SF-CAS             516:       -16.4405089824    22.6723   132.0000
 SF-CAS             517:       -16.4393261356    22.7044   132.0000
 SF-CAS             518:       -16.4372104429    22.7620   132.0000
 SF-CAS             519:       -16.4367051700    22.7758   132.0000
 SF-CAS             520:       -16.4338760996    22.8528   132.0000
 SF-CAS             521:       -16.4332640499    22.8694   132.0000
 SF-CAS             522:       -16.4309131200    22.9334   132.0000
 SF-CAS             523:       -16.4293446648    22.9761   132.0000
 SF-CAS             524:       -16.4279411803    23.0143   132.0000
 SF-CAS             525:       -16.4262122021    23.0613   132.0000
 SF-CAS             526:       -16.4247546684    23.1010   132.0000
 SF-CAS             527:       -16.4236467690    23.1311   132.0000
 SF-CAS             528:       -16.4210298872    23.2023   132.0000
 SF-CAS             529:       -16.4201628306    23.2259   132.0000
 SF-CAS             530:       -16.4187435222    23.2645   132.0000
 SF-CAS             531:       -16.4176069961    23.2955   132.0000
 SF-CAS             532:       -16.4168443710    23.3162   132.0000
 SF-CAS             533:       -16.4165479167    23.3243   132.0000
 SF-CAS             534:       -16.4160241695    23.3385   132.0000
 SF-CAS             535:       -16.4133727469    23.4107   132.0000
 SF-CAS             536:       -16.4124863988    23.4348   132.0000
 SF-CAS             537:       -16.4118507751    23.4521   132.0000
 SF-CAS             538:       -16.4107017568    23.4834   132.0000
 SF-CAS             539:       -16.4093015854    23.5215   132.0000
 SF-CAS             540:       -16.4085619548    23.5416   132.0000
 SF-CAS             541:       -16.4081664573    23.5524   132.0000
[...]
 J( 3,21) =            -0.164573  : J'( 3,21) =             0.082286  (cm-1)
 J( 3,22) =            -4.109105  : J'( 3,22) =             2.054552  (cm-1)
 J( 3,23) =           -27.229536  : J'( 3,23) =            13.614768  (cm-1)
 J( 4, 5) =          6074.888339  : J'( 4, 5) =         -3037.444170  (cm-1)
 J( 4, 6) =          6209.465441  : J'( 4, 6) =         -3104.732721  (cm-1)
 J( 4, 7) =          6286.077013  : J'( 4, 7) =         -3143.038506  (cm-1)
 J( 4, 8) =           540.299669  : J'( 4, 8) =          -270.149834  (cm-1)
 J( 4, 9) =            47.594509  : J'( 4, 9) =           -23.797254  (cm-1)
 J( 4,10) =            18.624122  : J'( 4,10) =            -9.312061  (cm-1)
 J( 4,11) =             5.747961  : J'( 4,11) =            -2.873980  (cm-1)
 J( 4,12) =           -30.085731  : J'( 4,12) =            15.042865  (cm-1)
 J( 4,13) =            -6.505124  : J'( 4,13) =             3.252562  (cm-1)
 J( 4,14) =            -4.176057  : J'( 4,14) =             2.088028  (cm-1)
 J( 4,15) =            -2.472568  : J'( 4,15) =             1.236284  (cm-1)
 J( 4,16) =           133.132100  : J'( 4,16) =           -66.566050  (cm-1)
 J( 4,17) =             6.251045  : J'( 4,17) =            -3.125523  (cm-1)
 J( 4,18) =             4.808269  : J'( 4,18) =            -2.404135  (cm-1)
 J( 4,19) =           -11.966288  : J'( 4,19) =             5.983144  (cm-1)
 J( 4,20) =            18.816519  : J'( 4,20) =            -9.408259  (cm-1)
 J( 4,21) =             1.708796  : J'( 4,21) =            -0.854398  (cm-1)
 J( 4,22) =            -2.344626  : J'( 4,22) =             1.172313  (cm-1)
 J( 4,23) =            -1.981754  : J'( 4,23) =             0.990877  (cm-1)
 J( 5, 6) =          5983.965086  : J'( 5, 6) =         -2991.982543  (cm-1)
 J( 5, 7) =          6031.452080  : J'( 5, 7) =         -3015.726040  (cm-1)
 J( 5, 8) =           314.373841  : J'( 5, 8) =          -157.186921  (cm-1)
 J( 5, 9) =           617.144928  : J'( 5, 9) =          -308.572464  (cm-1)
 J( 5,10) =            -7.870278  : J'( 5,10) =             3.935139  (cm-1)
 J( 5,11) =            -2.752875  : J'( 5,11) =             1.376437  (cm-1)
 J( 5,12) =           102.068651  : J'( 5,12) =           -51.034325  (cm-1)
 J( 5,13) =           294.758237  : J'( 5,13) =          -147.379119  (cm-1)
 J( 5,14) =             6.514998  : J'( 5,14) =            -3.257499  (cm-1)
 J( 5,15) =           -11.117636  : J'( 5,15) =             5.558818  (cm-1)
 J( 5,16) =           340.596650  : J'( 5,16) =          -170.298325  (cm-1)
 J( 5,17) =             0.869276  : J'( 5,17) =            -0.434638  (cm-1)
 J( 5,18) =            -3.665754  : J'( 5,18) =             1.832877  (cm-1)
 J( 5,19) =           289.160450  : J'( 5,19) =          -144.580225  (cm-1)
 J( 5,20) =           335.640952  : J'( 5,20) =          -167.820476  (cm-1)
 J( 5,21) =           505.794723  : J'( 5,21) =          -252.897361  (cm-1)
 J( 5,22) =            -2.397592  : J'( 5,22) =             1.198796  (cm-1)
 J( 5,23) =           -28.913013  : J'( 5,23) =            14.456506  (cm-1)
 J( 6, 7) =          6137.534601  : J'( 6, 7) =         -3068.767301  (cm-1)
 J( 6, 8) =           -12.476328  : J'( 6, 8) =             6.238164  (cm-1)
 J( 6, 9) =            22.452606  : J'( 6, 9) =           -11.226303  (cm-1)
 J( 6,10) =            -3.594485  : J'( 6,10) =             1.797242  (cm-1)
 J( 6,11) =             2.092370  : J'( 6,11) =            -1.046185  (cm-1)
 J( 6,12) =           151.694940  : J'( 6,12) =           -75.847470  (cm-1)
 J( 6,13) =           304.786624  : J'( 6,13) =          -152.393312  (cm-1)
 J( 6,14) =            10.428635  : J'( 6,14) =            -5.214318  (cm-1)
 J( 6,15) =             1.557338  : J'( 6,15) =            -0.778669  (cm-1)
 J( 6,16) =           170.906627  : J'( 6,16) =           -85.453313  (cm-1)
 J( 6,17) =            -3.217291  : J'( 6,17) =             1.608646  (cm-1)
 J( 6,18) =             8.782901  : J'( 6,18) =            -4.391451  (cm-1)
 J( 6,19) =           269.948573  : J'( 6,19) =          -134.974286  (cm-1)
 J( 6,20) =           -14.447741  : J'( 6,20) =             7.223870  (cm-1)
 J( 6,21) =             4.130887  : J'( 6,21) =            -2.065443  (cm-1)
 J( 6,22) =            -5.281501  : J'( 6,22) =             2.640751  (cm-1)
 J( 6,23) =            -5.052762  : J'( 6,23) =             2.526381  (cm-1)
 J( 7, 8) =             0.701947  : J'( 7, 8) =            -0.350973  (cm-1)
 J( 7, 9) =            16.927591  : J'( 7, 9) =            -8.463795  (cm-1)
 J( 7,10) =            -2.325998  : J'( 7,10) =             1.162999  (cm-1)
 J( 7,11) =            -0.361081  : J'( 7,11) =             0.180541  (cm-1)
 J( 7,12) =           416.291462  : J'( 7,12) =          -208.145731  (cm-1)
 J( 7,13) =            -9.546386  : J'( 7,13) =             4.773193  (cm-1)
 J( 7,14) =            17.200294  : J'( 7,14) =            -8.600147  (cm-1)
 J( 7,15) =             9.058163  : J'( 7,15) =            -4.529082  (cm-1)
 J( 7,16) =           -26.465905  : J'( 7,16) =            13.232953  (cm-1)
 J( 7,17) =            -3.499868  : J'( 7,17) =             1.749934  (cm-1)
 J( 7,18) =            -5.646699  : J'( 7,18) =             2.823349  (cm-1)
 J( 7,19) =            -1.822932  : J'( 7,19) =             0.911466  (cm-1)
 J( 7,20) =           392.033816  : J'( 7,20) =          -196.016908  (cm-1)
 J( 7,21) =           162.846866  : J'( 7,21) =           -81.423433  (cm-1)
 J( 7,22) =             7.859699  : J'( 7,22) =            -3.929849  (cm-1)
 J( 7,23) =            -4.412493  : J'( 7,23) =             2.206246  (cm-1)
 J( 8, 9) =          6055.966922  : J'( 8, 9) =         -3027.983461  (cm-1)
 J( 8,10) =          6252.922944  : J'( 8,10) =         -3126.461472  (cm-1)
 J( 8,11) =          6093.548094  : J'( 8,11) =         -3046.774047  (cm-1)
 J( 8,12) =             0.989854  : J'( 8,12) =            -0.494927  (cm-1)
 J( 8,13) =             2.581131  : J'( 8,13) =            -1.290566  (cm-1)
 J( 8,14) =             0.190551  : J'( 8,14) =            -0.095275  (cm-1)
 J( 8,15) =            -0.155854  : J'( 8,15) =             0.077927  (cm-1)
 J( 8,16) =           786.088544  : J'( 8,16) =          -393.044272  (cm-1)
 J( 8,17) =            35.259593  : J'( 8,17) =           -17.629797  (cm-1)
 J( 8,18) =            27.831905  : J'( 8,18) =           -13.915953  (cm-1)
 J( 8,19) =            20.899765  : J'( 8,19) =           -10.449882  (cm-1)
 J( 8,20) =            37.929040  : J'( 8,20) =           -18.964520  (cm-1)
 J( 8,21) =            -1.855239  : J'( 8,21) =             0.927620  (cm-1)
 J( 8,22) =            -2.759245  : J'( 8,22) =             1.379623  (cm-1)
 J( 8,23) =            35.216324  : J'( 8,23) =           -17.608162  (cm-1)
 J( 9,10) =          6278.067089  : J'( 9,10) =         -3139.033544  (cm-1)
 J( 9,11) =          5931.330328  : J'( 9,11) =         -2965.665164  (cm-1)
 J( 9,12) =             1.326201  : J'( 9,12) =            -0.663100  (cm-1)
 J( 9,13) =            -0.660488  : J'( 9,13) =             0.330244  (cm-1)
 J( 9,14) =            -0.238065  : J'( 9,14) =             0.119032  (cm-1)
 J( 9,15) =             2.238254  : J'( 9,15) =            -1.119127  (cm-1)
 J( 9,16) =           -11.658475  : J'( 9,16) =             5.829237  (cm-1)
 J( 9,17) =            19.935426  : J'( 9,17) =            -9.967713  (cm-1)
 J( 9,18) =             2.956790  : J'( 9,18) =            -1.478395  (cm-1)
 J( 9,19) =             4.567359  : J'( 9,19) =            -2.283680  (cm-1)
 J( 9,20) =           669.686014  : J'( 9,20) =          -334.843007  (cm-1)
 J( 9,21) =           -53.064804  : J'( 9,21) =            26.532402  (cm-1)
 J( 9,22) =           -23.865324  : J'( 9,22) =            11.932662  (cm-1)
 J( 9,23) =           664.343387  : J'( 9,23) =          -332.171693  (cm-1)
 J(10,11) =          6219.707426  : J'(10,11) =         -3109.853713  (cm-1)
 J(10,12) =             0.028472  : J'(10,12) =            -0.014236  (cm-1)
 J(10,13) =            -0.303968  : J'(10,13) =             0.151984  (cm-1)
 J(10,14) =            -0.063966  : J'(10,14) =             0.031983  (cm-1)
 J(10,15) =             0.175791  : J'(10,15) =            -0.087896  (cm-1)
 J(10,16) =             9.383973  : J'(10,16) =            -4.691987  (cm-1)
 J(10,17) =            29.264718  : J'(10,17) =           -14.632359  (cm-1)
 J(10,18) =            -0.119737  : J'(10,18) =             0.059868  (cm-1)
 J(10,19) =             3.336534  : J'(10,19) =            -1.668267  (cm-1)
 J(10,20) =            38.924649  : J'(10,20) =           -19.462324  (cm-1)
 J(10,21) =            -2.842312  : J'(10,21) =             1.421156  (cm-1)
 J(10,22) =            -3.726608  : J'(10,22) =             1.863304  (cm-1)
 J(10,23) =            41.957564  : J'(10,23) =           -20.978782  (cm-1)
 J(11,12) =            -0.299376  : J'(11,12) =             0.149688  (cm-1)
 J(11,13) =             2.437770  : J'(11,13) =            -1.218885  (cm-1)
 J(11,14) =             0.091704  : J'(11,14) =            -0.045852  (cm-1)
 J(11,15) =             1.005835  : J'(11,15) =            -0.502917  (cm-1)
 J(11,16) =           186.090445  : J'(11,16) =           -93.045223  (cm-1)
 J(11,17) =           874.578619  : J'(11,17) =          -437.289309  (cm-1)
 J(11,18) =             9.639129  : J'(11,18) =            -4.819564  (cm-1)
 J(11,19) =            -0.851867  : J'(11,19) =             0.425934  (cm-1)
 J(11,20) =            31.623278  : J'(11,20) =           -15.811639  (cm-1)
 J(11,21) =            -1.967681  : J'(11,21) =             0.983841  (cm-1)
 J(11,22) =            -3.424164  : J'(11,22) =             1.712082  (cm-1)
 J(11,23) =            28.159683  : J'(11,23) =           -14.079841  (cm-1)
 J(12,13) =          6143.165397  : J'(12,13) =         -3071.582699  (cm-1)
 J(12,14) =          6228.086535  : J'(12,14) =         -3114.043267  (cm-1)
 J(12,15) =          5812.448670  : J'(12,15) =         -2906.224335  (cm-1)
 J(12,16) =             4.147863  : J'(12,16) =            -2.073931  (cm-1)
 J(12,17) =             2.995032  : J'(12,17) =            -1.497516  (cm-1)
 J(12,18) =             4.317180  : J'(12,18) =            -2.158590  (cm-1)
 J(12,19) =            40.932123  : J'(12,19) =           -20.466061  (cm-1)
 J(12,20) =            28.177517  : J'(12,20) =           -14.088758  (cm-1)
 J(12,21) =           679.934032  : J'(12,21) =          -339.967016  (cm-1)
 J(12,22) =            41.534794  : J'(12,22) =           -20.767397  (cm-1)
 J(12,23) =            36.750087  : J'(12,23) =           -18.375043  (cm-1)
 J(13,14) =          6265.297066  : J'(13,14) =         -3132.648533  (cm-1)
 J(13,15) =          6162.980051  : J'(13,15) =         -3081.490025  (cm-1)
 J(13,16) =            31.380038  : J'(13,16) =           -15.690019  (cm-1)
 J(13,17) =            36.835422  : J'(13,17) =           -18.417711  (cm-1)
 J(13,18) =            57.009852  : J'(13,18) =           -28.504926  (cm-1)
 J(13,19) =          1100.284840  : J'(13,19) =          -550.142420  (cm-1)
 J(13,20) =             0.170531  : J'(13,20) =            -0.085266  (cm-1)
 J(13,21) =           -41.582799  : J'(13,21) =            20.791399  (cm-1)
 J(13,22) =            -2.244137  : J'(13,22) =             1.122069  (cm-1)
 J(13,23) =            -0.614551  : J'(13,23) =             0.307276  (cm-1)
 J(14,15) =          6281.044084  : J'(14,15) =         -3140.522042  (cm-1)
 J(14,16) =             3.164380  : J'(14,16) =            -1.582190  (cm-1)
 J(14,17) =             3.459429  : J'(14,17) =            -1.729714  (cm-1)
 J(14,18) =             5.188994  : J'(14,18) =            -2.594497  (cm-1)
 J(14,19) =            54.805583  : J'(14,19) =           -27.402792  (cm-1)
 J(14,20) =            -3.796547  : J'(14,20) =             1.898273  (cm-1)
 J(14,21) =           -27.504973  : J'(14,21) =            13.752486  (cm-1)
 J(14,22) =            -3.950536  : J'(14,22) =             1.975268  (cm-1)
 J(14,23) =            -3.832707  : J'(14,23) =             1.916353  (cm-1)
 J(15,16) =             2.928085  : J'(15,16) =            -1.464043  (cm-1)
 J(15,17) =             4.942235  : J'(15,17) =            -2.471118  (cm-1)
 J(15,18) =             4.580464  : J'(15,18) =            -2.290232  (cm-1)
 J(15,19) =            45.193547  : J'(15,19) =           -22.596774  (cm-1)
 J(15,20) =            32.501365  : J'(15,20) =           -16.250682  (cm-1)
 J(15,21) =           636.655326  : J'(15,21) =          -318.327663  (cm-1)
 J(15,22) =            38.870869  : J'(15,22) =           -19.435435  (cm-1)
 J(15,23) =            32.051575  : J'(15,23) =           -16.025787  (cm-1)
 J(16,17) =          6000.874807  : J'(16,17) =         -3000.437403  (cm-1)
 J(16,18) =          6184.845643  : J'(16,18) =         -3092.422821  (cm-1)
 J(16,19) =          6084.139529  : J'(16,19) =         -3042.069764  (cm-1)
 J(16,20) =             2.300123  : J'(16,20) =            -1.150061  (cm-1)
 J(16,21) =             1.023950  : J'(16,21) =            -0.511975  (cm-1)
 J(16,22) =            -0.156349  : J'(16,22) =             0.078174  (cm-1)
 J(16,23) =             0.414815  : J'(16,23) =            -0.207408  (cm-1)
 J(17,18) =          6236.539618  : J'(17,18) =         -3118.269809  (cm-1)
 J(17,19) =          6093.769808  : J'(17,19) =         -3046.884904  (cm-1)
 J(17,20) =             0.609894  : J'(17,20) =            -0.304947  (cm-1)
 J(17,21) =             1.009387  : J'(17,21) =            -0.504694  (cm-1)
 J(17,22) =            -0.091314  : J'(17,22) =             0.045657  (cm-1)
 J(17,23) =             1.702618  : J'(17,23) =            -0.851309  (cm-1)
 J(18,19) =          6324.679194  : J'(18,19) =         -3162.339597  (cm-1)
 J(18,20) =             0.027636  : J'(18,20) =            -0.013818  (cm-1)
 J(18,21) =            -0.194794  : J'(18,21) =             0.097397  (cm-1)
 J(18,22) =            -0.092725  : J'(18,22) =             0.046363  (cm-1)
 J(18,23) =            -0.029959  : J'(18,23) =             0.014979  (cm-1)
 J(19,20) =             0.684764  : J'(19,20) =            -0.342382  (cm-1)
 J(19,21) =             2.534208  : J'(19,21) =            -1.267104  (cm-1)
 J(19,22) =            -0.023594  : J'(19,22) =             0.011797  (cm-1)
 J(19,23) =             0.125067  : J'(19,23) =            -0.062533  (cm-1)
 J(20,21) =          5957.226175  : J'(20,21) =         -2978.613087  (cm-1)
 J(20,22) =          6302.623523  : J'(20,22) =         -3151.311761  (cm-1)
 J(20,23) =          5823.989491  : J'(20,23) =         -2911.994745  (cm-1)
 J(21,22) =          6248.725724  : J'(21,22) =         -3124.362862  (cm-1)
 J(21,23) =          6167.990052  : J'(21,23) =         -3083.995026  (cm-1)
 J(22,23) =          6250.078425  : J'(22,23) =         -3125.039212  (cm-1)
 Analysis of SCF Wavefunction

 --------------------------------------------------------------

                    Orbital Energies (a.u.)
 --------------------------------------------------------------

 Alpha MOs
 -- Occupied --
 -0.914  -0.914  -0.515  -0.518  -0.515  -0.518  -0.516  -0.516
 -0.517  -0.518  -0.516  -0.521  -0.520  -0.515  -0.518  -0.522
 -0.525  -0.519  -0.518  -0.517  -0.518  -0.515  -0.519  -0.515
 -0.524  -0.517
 -- Virtual --
  0.992   0.907   0.975   1.065   0.770   1.018   0.956   1.021
  1.028   1.105   0.998   1.019   1.049   1.157   0.963   0.984
  1.036   1.035   0.960   1.031   1.025   1.026   1.036   1.236
  1.180   1.040

 Beta MOs
 -- Occupied --
 -0.914  -0.914
 -- Virtual --
  0.149   0.149   0.149   0.149   0.150   0.149   0.151   0.150
  0.149   0.151   0.148   0.149   0.153   0.150   0.153   0.149
  0.148   0.150   0.151   0.150   0.153   0.148   0.153   0.148
  1.156   1.087   1.147   1.233   0.973   1.184   1.130   1.189
  1.188   1.244   1.163   1.187   1.212   1.281   1.132   1.152
  1.199   1.193   1.128   1.190   1.192   1.195   1.205   1.314
  1.290   1.203
 --------------------------------------------------------------

          Ground-State Mulliken Net Atomic Charges

     Atom                 Charge (a.u.)
  ----------------------------------------
      1 H                    -0.000044
      2 H                    -0.000146
      3 H                     0.000001
      4 H                     0.000030
      5 H                     0.000020
      6 H                    -0.000143
      7 H                    -0.000037
      8 H                    -0.000020
      9 H                    -0.000037
     10 H                    -0.000028
     11 H                     0.000181
     12 H                    -0.000040
     13 H                    -0.000042
     14 H                     0.000003
     15 H                     0.000140
     16 H                    -0.000025
     17 H                    -0.000040
     18 H                    -0.000047
     19 H                     0.000175
     20 H                    -0.000014
     21 H                    -0.000042
     22 H                     0.000001
     23 H                     0.000168
     24 H                    -0.000013
     25 He                    0.000000
     26 He                    0.000000
  ----------------------------------------
  Sum of atomic charges =    -0.000000

 -----------------------------------------------------------------
                    Cartesian Multipole Moments
 -----------------------------------------------------------------
    Charge (ESU x 10^10)
                 0.0000
    Dipole Moment (Debye)
         X      -0.0011      Y      -0.0001      Z      -0.0006
       Tot       0.0012
    Quadrupole Moments (Debye-Ang)
        XX     -37.4331     XY      -0.0983     YY     -37.4708
        XZ      -0.0138     YZ       0.0253     ZZ     -37.5085
    Octopole Moments (Debye-Ang^2)
       XXX     172.8427    XXY     -49.5318    XYY      58.6738
       YYY    -153.2273    XXZ     -19.3246    XYZ       0.1931
       YYZ     -19.7095    XZZ      59.2870    YZZ     -49.5754
       ZZZ     -61.1383
    Hexadecapole Moments (Debye-Ang^3)
      XXXX   -2458.6091   XXXY      68.7975   XXYY    -754.0529
      XYYY      72.0300   YYYY   -2051.6055   XXXZ     -41.1019
      XXYZ    -206.4543   XYYZ      -5.5554   YYYZ    -631.6654
      XXZZ    -736.1280   XYZZ      30.5634   YYZZ    -666.6142
      XZZZ     -42.5504   YZZZ    -639.2367   ZZZZ   -2003.6612
 -----------------------------------------------------------------
 JobOver = TRUE
Archival summary:
1\1\sinatra\SP\ROProcedureUnspecified\6-31G*\e224()\nmayhall\TueMar2119:50:472017TueMar2119:50:472017\0\\#,ROProcedureUnspecified,6-31G*,\\0,25\H\H,1,1.80963\H,1,1.80968,2,60.098\H,1,1.80973,2,60.0694,3,-70.5886,0\H,1,2.48953,2,135.832,3,152.309,0\H,5,1.80916,1,130.619,2,-163.289,0\H,5,1.80951,1,142.6,2,104.376,0\H,5,1.80972,1,156.23,2,-54.724,0\H,5,2.7002,1,64.5687,2,-7.67096,0\H,9,1.8105,5,99.5424,1,-65.8101,0\H,9,1.81059,5,135.202,1,-122.464,0\H,9,1.81073,5,75.1825,1,-121.175,0\H,10,2.65703,9,119.295,5,16.0119,0\H,13,1.81084,10,114.521,9,-10.1986,0\H,14,1.81081,13,60.0216,10,-134.581,0\H,14,1.81091,13,60.0287,10,-64.0577,0\H,14,2.56493,13,136.073,10,60.081,0\H,17,1.81087,14,138.485,13,1.57655,0\H,17,1.8109,14,154.99,13,131.255,0\H,17,1.811,14,139.009,13,-97.0871,0\H,20,2.70179,17,95.3927,14,66.9462,0\H,21,1.81053,20,163.342,17,-1.99129,0\H,21,1.81066,20,136.572,17,173.248,0\H,21,1.81068,20,125.198,17,-105.025,0\He,3,13.0801,1,171.333,2,117.677,0\He,11,15.1402,9,148.74,5,37.6548,0\\HF=-17.2083195\\@

 Total job time:  2.18s(wall), 1.98s(cpu) 
 Tue Mar 21 19:50:47 2017

        *************************************************************
        *                                                           *
        *  Thank you very much for using Q-Chem.  Have a nice day.  *
        *                                                           *
        *************************************************************


*** MISSION COMPLETED -- STARFLEET OUT ***

