                  Welcome to Q-Chem
     A Quantum Leap Into The Future Of Chemistry


 Q-Chem 4.3, Q-Chem, Inc., Pleasanton, CA (2015)

 Y. Shao,  Z. Gan,  E. Epifanovsky,  A. T. B. Gilbert,  M. Wormit,  
 J. Kussmann,  A. W. Lange,  A. Behn,  J. Deng,  X. Feng,  D. Ghosh,  
 M. Goldey,  P. R. Horn,  L. D. Jacobson,  I. Kaliman,  R. Z. Khaliullin,  
 T. Kus,  A. Landau,  J. Liu,  E. I. Proynov,  Y. M. Rhee,  R. M. Richard,  
 M. A. Rohrdanz,  R. P. Steele,  E. J. Sundstrom,  H. L. Woodcock III,  
 P. M. Zimmerman,  D. Zuev,  B. Albrecht,  E. Alguire,  B. Austin,  
 S. A. Baeppler,  G. J. O. Beran,  Y. A. Bernard,  E. Berquist,  
 K. Brandhorst,  K. B. Bravaya,  S. T. Brown,  D. Casanova,  C.-M. Chang,  
 Y. Chen,  S. H. Chien,  K. D. Closser,  D. L. Crittenden,  M. Diedenhofen,  
 R. A. DiStasio Jr.,  H. Do,  A. D. Dutoi,  R. G. Edgar,  P.-T. Fang,  
 S. Fatehi,  Q. Feng,  L. Fusti-Molnar,  A. Ghysels,  
 A. Golubeva-Zadorozhnaya,  J. Gomes,  A. Gunina,  M. W. D. Hanson-Heine,  
 P. H. P. Harbach,  A. W. Hauser,  E. G. Hohenstein,  Z. C. Holden,  K. Hui,  
 T.-C. Jagau,  H. Ji,  B. Kaduk,  K. Khistyaev,  Jaehoon Kim,  Jihan Kim,  
 R. A. King,  P. Klunzinger,  D. Kosenkov,  T. Kowalczyk,  C. M. Krauter,  
 K. U. Lao,  A. Laurent,  K. V. Lawler,  S. Lehtola,  S. V. Levchenko,  
 C. Y. Lin,  Y.-S. Lin,  F. Liu,  E. Livshits,  R. C. Lochan,  A. Luenser,  
 P. Manohar,  S. F. Manzer,  S.-P. Mao,  N. Mardirossian,  A. V. Marenich,  
 L. A. Martinez-Martinez,  S. A. Maurer,  N. J. Mayhall,  K. Nanda,  
 C. M. Oana,  R. Olivares-Amaya,  D. P. O'Neill,  J. A. Parkhill,  
 T. M. Perrine,  R. Peverati,  P. A. Pieniazek,  F. Plasser,  A. Prociuk,  
 D. R. Rehn,  E. Rosta,  N. J. Russ,  N. Sergueev,  S. M. Sharada,  
 S. Sharma,  D. W. Small,  A. Sodt,  T. Stauch,  T. Stein,  D. Stuck,  
 Y.-C. Su,  A. J. W. Thom,  T. Tsuchimochi,  L. Vogt,  O. Vydrov,  T. Wang,  
 M. A. Watson,  J. Wenzel,  A. White,  C. F. Williams,  V. Vanovschi,  
 S. Yeganeh,  S. R. Yost,  Z.-Q. You,  I. Y. Zhang,  X. Zhang,  Y. Zhao,  
 B. R. Brooks,  G. K. L. Chan,  D. M. Chipman,  C. J. Cramer,  
 W. A. Goddard III,  M. S. Gordon,  W. J. Hehre,  A. Klamt,  
 H. F. Schaefer III,  M. W. Schmidt,  C. D. Sherrill,  D. G. Truhlar,  
 A. Warshel,  X. Xu,  A. Aspuru-Guzik,  R. Baer,  A. T. Bell,  N. A. Besley,  
 J.-D. Chai,  A. Dreuw,  B. D. Dunietz,  T. R. Furlani,  S. R. Gwaltney,  
 C.-P. Hsu,  Y. Jung,  J. Kong,  D. S. Lambrecht,  W. Liang,  C. Ochsenfeld,  
 V. A. Rassolov,  L. V. Slipchenko,  J. E. Subotnik,  T. Van Voorhis,  
 J. M. Herbert,  A. I. Krylov,  P. M. W. Gill,  M. Head-Gordon

 Contributors to earlier versions of Q-Chem not listed above: 
 R. D. Adamson,  J. Baker,  E. F. C. Byrd,  A. K. Chakraborty,  C.-L. Cheng,  
 H. Dachsel,  R. J. Doerksen,  G. Hawkins,  A. Heyden,  S. Hirata,  
 G. Kedziora,  F. J. Keil,  C. Kelley,  P. P. Korambath,  W. Kurlancheek,  
 A. M. Lee,  M. S. Lee,  D. Liotard,  I. Lotan,  P. E. Maslen,  N. Nair,  
 D. Neuhauser,  R. Olson,  B. Peters,  J. Ritchie,  N. E. Schultz,  
 N. Shenvi,  A. C. Simmonett,  K. S. Thanthiriwatte,  Q. Wu,  W. Zhang

 Please cite Q-Chem as follows:
 Y. Shao et al., Mol. Phys. 113, 184-215 (2015)
 DOI: 10.1080/00268976.2014.952696

 Q-Chem 4.3.0 for Intel X86 EM64T Linux

 Parts of Q-Chem use Armadillo 5.200.1 (Boston Tea Smuggler).
 http://arma.sourceforge.net/

 Q-Chem begins on Wed Mar 29 12:48:24 2017  


Host: 0

     Scratch files written to /home/nmayhall/scratch_qchem/shrink2//
 Dec1416 |home|nmayhall|qcSoftware|qchem|qchem.svn-casman|libmdc|qstr_RNUM -1
 Using version located at /home/nmayhall/qcSoftware/qchem/qchem.svn-casman/bin/qchem


Total Memory Limit in MB = 2000
Mega-Array Size in MB = 62

Checking the input file for inconsistencies... 	...done.

 Q-Chem warning in module /home/nmayhall/qcSoftware/qchem/qchem.svn-casman/forms1/BasisType.C, line 1452:

 You are not using the predefined 5D/6D in this basis set.

Finally everything over in PARseQInput

--------------------------------------------------------------
User input:
--------------------------------------------------------------
$rem
	exchange 		hf
	unrestricted		1
	basis			6-31g*	
	aux_basis		rimp2-vdz
	scf_guess		core	
	scf_convergence		8
	scf_max_cycles		200
	purecart		1111

	symmetry		0
	sym_ignore		1

	!correlation		sf-cas
	!cas_n_spin_flip		1
	!cas_local		1
	gui			2
$end

$development
	1sf_heis_projection	1
$end

$molecule
0 25
H	-2.3064588	2.7319194	-0.2251962
H	-2.0919708	1.3313889	0.1504089
H	-3.3983226	1.7605755	-0.3575826
H	-2.9517453	2.1856311	0.9748755
H	0.738558	-0.5595642	-0.0444771
H	-0.6259842	-0.0282366	-0.1116018
H	-0.3697245	-1.2986811	0.5723217
H	-0.2659878	-1.2170817	-0.8896392
H	0.8677854	1.680669	0.2657205
H	-0.1424628	2.0083383	-0.7458237
H	0.8979822	2.9846232	-0.4064337
H	-0.1657179	2.6807436	0.5572395
H	-2.5533063	-1.4752854	-0.5938677
H	-2.6660502	-0.7401942	0.6705504
H	-3.6949689	-1.716147	0.295812
H	-3.5873604	-0.4468608	-0.4324671
H	-0.0406458	0.7115202	1.9806606
H	-1.0958409	1.6998579	2.231955
H	-0.7839099	0.6855759	3.2452407
H	-1.4471217	0.2953584	1.9965366
H	-0.694332	0.5810616	-2.3132385
H	-2.0345094	0.2735289	-1.8029223
H	-1.8420939	0.5644728	-3.2274693
H	-1.7103069	1.6370586	-2.2346442
He	10	10	10	
He	-10	10	10	
$end


--------------------------------------------------------------
 ----------------------------------------------------------------
             Standard Nuclear Orientation (Angstroms)
    I     Atom           X                Y                Z
 ----------------------------------------------------------------
    1      H      -2.3064588000     2.7319194000    -0.2251962000
    2      H      -2.0919708000     1.3313889000     0.1504089000
    3      H      -3.3983226000     1.7605755000    -0.3575826000
    4      H      -2.9517453000     2.1856311000     0.9748755000
    5      H       0.7385580000    -0.5595642000    -0.0444771000
    6      H      -0.6259842000    -0.0282366000    -0.1116018000
    7      H      -0.3697245000    -1.2986811000     0.5723217000
    8      H      -0.2659878000    -1.2170817000    -0.8896392000
    9      H       0.8677854000     1.6806690000     0.2657205000
   10      H      -0.1424628000     2.0083383000    -0.7458237000
   11      H       0.8979822000     2.9846232000    -0.4064337000
   12      H      -0.1657179000     2.6807436000     0.5572395000
   13      H      -2.5533063000    -1.4752854000    -0.5938677000
   14      H      -2.6660502000    -0.7401942000     0.6705504000
   15      H      -3.6949689000    -1.7161470000     0.2958120000
   16      H      -3.5873604000    -0.4468608000    -0.4324671000
   17      H      -0.0406458000     0.7115202000     1.9806606000
   18      H      -1.0958409000     1.6998579000     2.2319550000
   19      H      -0.7839099000     0.6855759000     3.2452407000
   20      H      -1.4471217000     0.2953584000     1.9965366000
   21      H      -0.6943320000     0.5810616000    -2.3132385000
   22      H      -2.0345094000     0.2735289000    -1.8029223000
   23      H      -1.8420939000     0.5644728000    -3.2274693000
   24      H      -1.7103069000     1.6370586000    -2.2346442000
   25      He     10.0000000000    10.0000000000    10.0000000000
   26      He    -10.0000000000    10.0000000000    10.0000000000
 ----------------------------------------------------------------
 Nuclear Repulsion Energy =    53.5434585499 hartrees
 There are       26 alpha and        2 beta electrons
 Requested basis set is 6-31G(d)
 There are 52 shells and 52 basis functions

Total QAlloc Memory Limit   2000 MB
Mega-Array Size        61 MB
MEM_STATIC part        62 MB

finished with qalloc call

 Q-Chem warning in module /home/nmayhall/qcSoftware/qchem/qchem.svn-casman/forms1/BasisType.C, line 1375:

 SAD: How to set up polarization functions for non-Pople basis?

 Requested basis set is rimp2-VDZ
 There are 154 shells and 354 basis functions
 Job number = 2, Threshold = 1.00E-11
Integral type ranges set in mkLRange.C for JobNum: 2  <1-7|1-7>
Symmetry turned off temporarily
 Using the largest function pair in Schwarz integrals
Total number of integrals generated =            2550
Symmetry turned back on
 A cutoff of  1.0D-11 yielded   1140 shell pairs
 There are      1140 function pairs
 Job number = 11, Threshold = 1.00E-11
Integral type ranges set in mkLRange.C for JobNum: 11  <1-1|8-8>

 -------------------------------------------------------
 OpenMP Integral Computing Module                       
 Release: version 1.0, May 2013, Q-Chem Inc. Pittsburgh 
 -------------------------------------------------------
 Integral Job Info:
 Integral job number is                      11
 Integral operator is                         1
 short-range coefficients                     0
 long-range coefficients              100000000
 Omega coefficients                           0
 if combine SR and LR in K                    0
 Integral screening is                        0
 Integral computing path is                   2
 max size of driver memory is            800000
 size of driver memory is                 11780
 size of scratch memory is               800000
 max col of scratch BK array                289
 max len of scratch array in speh3            1
 max len of scratch index in speh4            2
 max int batch size is                      520
 min int batch size is                       52
 fixed nKL is                               520
 max L of basis functions is                  0
 order of int derivative is                   0
 number of shells is                         52
 number of basis is                          52
 number of cartesian basis is                52
 number of contracted shell pairs          1140
 number of primitive shell pairs           3160
 maxK2 (contraction) of shell pair            9
 max number of K2 of shell pair               1
 max number of CS2 of shell pair            639
 max number of PS2 of shell pair           1917
 mem total for path MDJ                   12684
 -------------------------------------------------------
 Smallest overlap matrix eigenvalue = 1.03E-01
 Multipole matrices computed through 2nd order

  Scale SEOQF with 1.000000e-02/1.000000e-02/1.000000e-02

 Standard Electronic Orientation quadrupole field applied
 Nucleus-field energy     =     0.0000000002 hartrees
GuessMan:  IGuess = 1
 Guess MOs from core Hamiltonian diagonalization
scfman initvdwdat 
 An unrestricted Hartree-Fock SCF calculation will be
 performed using Pulay DIIS extrapolation
 SCF converges when DIIS error is below 1.0E-08
Finding J and K together
 Job number = 22, Threshold = 1.00E-11
Integral type ranges set in mkLRange.C for JobNum: 22  <1-1|1-1>
Storing 279.56% of integrals
Total number of integrals generated =          615208
 MakeJK  time:  CPU       0.16 s  wall       0.17 s
Fock build time:  0.16 s (CPU) 0.17 s (wall)
DIIS Errors:  Max 3.95E-01 RMS 4.04E-02

Current DIIS subspace size = 1
REM_GRID_RESTART_DIIS = 0

 ---------------------------------------
  Cycle       Energy         DIIS Error
 ---------------------------------------
    1      -5.5650429468      4.04E-02  00000
Finding J and K together
 Job number = 22, Threshold = 1.00E-11
Integral type ranges set in mkLRange.C for JobNum: 22  <1-1|1-1>
Storing 279.56% of integrals
Reusing in-core integrals buffer for job 22
 MakeJK  time:  CPU       0.03 s  wall       0.03 s
Fock build time:  0.03 s (CPU) 0.03 s (wall)
DIIS Errors:  Max 4.99E-01 RMS 2.16E-02

Current DIIS subspace size = 2
REM_GRID_RESTART_DIIS = 0

    2     -12.2092499182      2.16E-02  00000
Finding J and K together
 Job number = 22, Threshold = 1.00E-11
Integral type ranges set in mkLRange.C for JobNum: 22  <1-1|1-1>
Storing 279.56% of integrals
Reusing in-core integrals buffer for job 22
 MakeJK  time:  CPU       0.03 s  wall       0.03 s
Fock build time:  0.03 s (CPU) 0.03 s (wall)
DIIS Errors:  Max 4.75E-02 RMS 2.94E-03

Current DIIS subspace size = 3
REM_GRID_RESTART_DIIS = 0

    3     -16.5072471884      2.94E-03  00000
Finding J and K together
 Job number = 22, Threshold = 1.00E-11
Integral type ranges set in mkLRange.C for JobNum: 22  <1-1|1-1>
Storing 279.56% of integrals
Reusing in-core integrals buffer for job 22
 MakeJK  time:  CPU       0.03 s  wall       0.03 s
Fock build time:  0.03 s (CPU) 0.03 s (wall)
DIIS Errors:  Max 1.23E-02 RMS 9.19E-04

Current DIIS subspace size = 4
REM_GRID_RESTART_DIIS = 0

    4     -16.5176700852      9.19E-04  00000
Finding J and K together
 Job number = 22, Threshold = 1.00E-11
Integral type ranges set in mkLRange.C for JobNum: 22  <1-1|1-1>
Storing 279.56% of integrals
Reusing in-core integrals buffer for job 22
 MakeJK  time:  CPU       0.03 s  wall       0.03 s
Fock build time:  0.03 s (CPU) 0.03 s (wall)
DIIS Errors:  Max 5.74E-03 RMS 2.57E-04

Current DIIS subspace size = 5
REM_GRID_RESTART_DIIS = 0

    5     -16.5187315882      2.57E-04  00000
Finding J and K together
 Job number = 22, Threshold = 1.00E-11
Integral type ranges set in mkLRange.C for JobNum: 22  <1-1|1-1>
Storing 279.56% of integrals
Reusing in-core integrals buffer for job 22
 MakeJK  time:  CPU       0.03 s  wall       0.03 s
Fock build time:  0.03 s (CPU) 0.03 s (wall)
DIIS Errors:  Max 1.48E-03 RMS 6.51E-05

Current DIIS subspace size = 6
REM_GRID_RESTART_DIIS = 0

    6     -16.5188031626      6.51E-05  00000
Finding J and K together
 Job number = 22, Threshold = 1.00E-11
Integral type ranges set in mkLRange.C for JobNum: 22  <1-1|1-1>
Storing 279.56% of integrals
Reusing in-core integrals buffer for job 22
 MakeJK  time:  CPU       0.03 s  wall       0.03 s
Fock build time:  0.03 s (CPU) 0.03 s (wall)
DIIS Errors:  Max 1.42E-05 RMS 1.63E-06

Current DIIS subspace size = 7
REM_GRID_RESTART_DIIS = 0

    7     -16.5188084837      1.63E-06  00000
Finding J and K together
 Job number = 22, Threshold = 1.00E-11
Integral type ranges set in mkLRange.C for JobNum: 22  <1-1|1-1>
Storing 279.56% of integrals
Reusing in-core integrals buffer for job 22
 MakeJK  time:  CPU       0.03 s  wall       0.03 s
Fock build time:  0.03 s (CPU) 0.03 s (wall)
DIIS Errors:  Max 2.69E-06 RMS 2.07E-07

Current DIIS subspace size = 8
REM_GRID_RESTART_DIIS = 0

    8     -16.5188084878      2.07E-07  00000
Finding J and K together
 Job number = 22, Threshold = 1.00E-11
Integral type ranges set in mkLRange.C for JobNum: 22  <1-1|1-1>
Storing 279.56% of integrals
Reusing in-core integrals buffer for job 22
 MakeJK  time:  CPU       0.03 s  wall       0.03 s
Fock build time:  0.03 s (CPU) 0.03 s (wall)
DIIS Errors:  Max 1.71E-07 RMS 1.48E-08

Current DIIS subspace size = 9
REM_GRID_RESTART_DIIS = 0

    9     -16.5188084880      1.48E-08  00000
Finding J and K together
 Job number = 22, Threshold = 1.00E-11
Integral type ranges set in mkLRange.C for JobNum: 22  <1-1|1-1>
Storing 279.56% of integrals
Reusing in-core integrals buffer for job 22
 MakeJK  time:  CPU       0.03 s  wall       0.03 s
Fock build time:  0.03 s (CPU) 0.03 s (wall)
DIIS Errors:  Max 3.31E-08 RMS 1.71E-09

Current DIIS subspace size = 10
REM_GRID_RESTART_DIIS = 0

   10     -16.5188084880      1.71E-09  00000 Convergence criterion met
 ---------------------------------------
 <S^2> = 156.0000
 SCF time:  CPU 0.46 s  wall 0.46 s
 SCF   energy in the final basis set = -16.5188084880
 Total energy in the final basis set = -16.5188084880
Symmetry turned off temporarily
 Analysis of SCF Wavefunction

 --------------------------------------------------------------

                    Orbital Energies (a.u.)
 --------------------------------------------------------------

 Alpha MOs
 -- Occupied --
 -0.923  -0.914  -0.914  -0.858  -0.853  -0.847  -0.824  -0.815
 -0.562  -0.529  -0.522  -0.512  -0.501  -0.492  -0.470  -0.442
 -0.436  -0.429  -0.421  -0.415  -0.411  -0.405  -0.399  -0.393
 -0.384  -0.380
 -- Virtual --
  0.805   0.812   0.821   0.822   0.833   0.840   0.869   0.919
  0.923   0.926   0.927   0.937   0.946   0.956   0.965   1.017
  1.034   1.039   1.066   1.278   1.325   1.351   1.380   1.400
  1.400   1.438

 Beta MOs
 -- Occupied --
 -0.914  -0.914
 -- Virtual --
 -0.180  -0.119  -0.111  -0.106  -0.079  -0.067   0.087   0.101
  0.109   0.120   0.125   0.132   0.171   0.202   0.207   0.216
  0.223   0.230   0.241   0.246   0.252   0.262   0.273   0.281
  1.057   1.067   1.070   1.075   1.080   1.091   1.118   1.131
  1.137   1.142   1.152   1.154   1.167   1.180   1.186   1.217
  1.237   1.240   1.261   1.400   1.400   1.461   1.506   1.533
  1.567   1.619
 --------------------------------------------------------------

          Ground-State Mulliken Net Atomic Charges

     Atom                 Charge (a.u.)    Spin (a.u.)
  --------------------------------------------------------
      1 H                    -0.000238       1.000238
      2 H                     0.000618       0.999382
      3 H                    -0.000361       1.000361
      4 H                    -0.000783       1.000783
      5 H                    -0.000579       1.000579
      6 H                     0.000639       0.999361
      7 H                    -0.000470       1.000470
      8 H                    -0.000411       1.000411
      9 H                     0.000246       0.999754
     10 H                     0.000620       0.999380
     11 H                    -0.001290       1.001290
     12 H                     0.000083       0.999917
     13 H                     0.000387       0.999613
     14 H                     0.001180       0.998820
     15 H                    -0.001138       1.001138
     16 H                     0.000713       0.999287
     17 H                    -0.000078       1.000078
     18 H                     0.000362       0.999638
     19 H                    -0.001072       1.001072
     20 H                     0.001258       0.998742
     21 H                     0.000678       0.999322
     22 H                     0.000464       0.999536
     23 H                    -0.001147       1.001147
     24 H                     0.000318       0.999682
     25 He                    0.000000      -0.000000
     26 He                    0.000000       0.000000
  --------------------------------------------------------
  Sum of atomic charges =     0.000000
  Sum of spin   charges =    24.000000

 -----------------------------------------------------------------
                    Cartesian Multipole Moments
 -----------------------------------------------------------------
    Charge (ESU x 10^10)
                 0.0000
    Dipole Moment (Debye)
         X      -0.0130      Y      -0.0067      Z      -0.0027
       Tot       0.0149
    Quadrupole Moments (Debye-Ang)
        XX     -41.0285     XY      -0.4688     YY     -41.1774
        XZ      -0.1052     YZ       0.0830     ZZ     -41.3908
    Octopole Moments (Debye-Ang^2)
       XXX     154.2847    XXY     -45.2919    XYY      52.3025
       YYY    -143.5612    XXZ     -19.0263    XYZ       0.1679
       YYZ     -19.5111    XZZ      53.3001    YZZ     -46.5315
       ZZZ     -61.9295
    Hexadecapole Moments (Debye-Ang^3)
      XXXX   -2133.5136   XXXY      43.4303   XXYY    -669.7769
      XYYY      47.6473   YYYY   -1838.6170   XXXZ     -28.7209
      XXYZ    -205.1275   XYYZ      -1.4254   YYYZ    -627.8224
      XXZZ    -646.0997   XYZZ      24.3398   YYZZ    -595.8588
      XZZZ     -33.8343   YZZZ    -636.3624   ZZZZ   -1821.5455
 -----------------------------------------------------------------
 JobOver = TRUE
Archival summary:
1\1\sinatra\SP\HF\6-31G*\e224(o)\nmayhall\WedMar2912:48:242017WedMar2912:48:242017\0\\#,HF,6-31G*,\\0,25\H\H,1,1.46542\H,1,1.46571,2,60.1059\H,1,1.46588,2,60.1063,3,70.5779,0\H,1,2.01652,2,130.619,3,-135.572,0\H,5,1.4658,1,135.832,2,-163.289,0\H,5,1.46584,1,153.178,2,-46.5163,0\H,5,1.46588,1,143.154,2,96.3597,0\H,1,2.18716,2,154.68,3,105.089,0\H,9,1.46651,1,99.5424,2,67.077,0\H,9,1.46658,1,135.202,2,10.4233,0\H,9,1.46669,1,75.1825,2,11.7126,0\H,10,2.15219,9,119.295,1,16.0119,0\H,13,1.46678,10,114.521,9,-10.1986,0\H,14,1.46676,13,60.0216,10,-134.581,0\H,14,1.46684,13,60.0287,10,-64.0577,0\H,14,2.07759,13,136.073,10,60.081,0\H,17,1.4668,14,138.485,13,1.57655,0\H,17,1.46683,14,154.99,13,131.255,0\H,17,1.46691,14,139.009,13,-97.0871,0\H,20,2.18845,17,95.3927,14,66.9462,0\H,21,1.46653,20,163.342,17,-1.99129,0\H,21,1.46663,20,136.572,17,173.248,0\H,21,1.46665,20,125.198,17,-105.025,0\He,7,13.8634,5,173.142,1,-16.014,0\He,11,15.5034,9,150.818,1,40.0418,0\\HF=-16.5188085\\@

 Total job time:  0.53s(wall), 0.52s(cpu) 
 Wed Mar 29 12:48:24 2017

        *************************************************************
        *                                                           *
        *  Thank you very much for using Q-Chem.  Have a nice day.  *
        *                                                           *
        *************************************************************


*** MISSION COMPLETED -- STARFLEET OUT ***

 
User input: 2 of 2 
 
                  Welcome to Q-Chem
     A Quantum Leap Into The Future Of Chemistry


 Q-Chem 4.3, Q-Chem, Inc., Pleasanton, CA (2015)

 Y. Shao,  Z. Gan,  E. Epifanovsky,  A. T. B. Gilbert,  M. Wormit,  
 J. Kussmann,  A. W. Lange,  A. Behn,  J. Deng,  X. Feng,  D. Ghosh,  
 M. Goldey,  P. R. Horn,  L. D. Jacobson,  I. Kaliman,  R. Z. Khaliullin,  
 T. Kus,  A. Landau,  J. Liu,  E. I. Proynov,  Y. M. Rhee,  R. M. Richard,  
 M. A. Rohrdanz,  R. P. Steele,  E. J. Sundstrom,  H. L. Woodcock III,  
 P. M. Zimmerman,  D. Zuev,  B. Albrecht,  E. Alguire,  B. Austin,  
 S. A. Baeppler,  G. J. O. Beran,  Y. A. Bernard,  E. Berquist,  
 K. Brandhorst,  K. B. Bravaya,  S. T. Brown,  D. Casanova,  C.-M. Chang,  
 Y. Chen,  S. H. Chien,  K. D. Closser,  D. L. Crittenden,  M. Diedenhofen,  
 R. A. DiStasio Jr.,  H. Do,  A. D. Dutoi,  R. G. Edgar,  P.-T. Fang,  
 S. Fatehi,  Q. Feng,  L. Fusti-Molnar,  A. Ghysels,  
 A. Golubeva-Zadorozhnaya,  J. Gomes,  A. Gunina,  M. W. D. Hanson-Heine,  
 P. H. P. Harbach,  A. W. Hauser,  E. G. Hohenstein,  Z. C. Holden,  K. Hui,  
 T.-C. Jagau,  H. Ji,  B. Kaduk,  K. Khistyaev,  Jaehoon Kim,  Jihan Kim,  
 R. A. King,  P. Klunzinger,  D. Kosenkov,  T. Kowalczyk,  C. M. Krauter,  
 K. U. Lao,  A. Laurent,  K. V. Lawler,  S. Lehtola,  S. V. Levchenko,  
 C. Y. Lin,  Y.-S. Lin,  F. Liu,  E. Livshits,  R. C. Lochan,  A. Luenser,  
 P. Manohar,  S. F. Manzer,  S.-P. Mao,  N. Mardirossian,  A. V. Marenich,  
 L. A. Martinez-Martinez,  S. A. Maurer,  N. J. Mayhall,  K. Nanda,  
 C. M. Oana,  R. Olivares-Amaya,  D. P. O'Neill,  J. A. Parkhill,  
 T. M. Perrine,  R. Peverati,  P. A. Pieniazek,  F. Plasser,  A. Prociuk,  
 D. R. Rehn,  E. Rosta,  N. J. Russ,  N. Sergueev,  S. M. Sharada,  
 S. Sharma,  D. W. Small,  A. Sodt,  T. Stauch,  T. Stein,  D. Stuck,  
 Y.-C. Su,  A. J. W. Thom,  T. Tsuchimochi,  L. Vogt,  O. Vydrov,  T. Wang,  
 M. A. Watson,  J. Wenzel,  A. White,  C. F. Williams,  V. Vanovschi,  
 S. Yeganeh,  S. R. Yost,  Z.-Q. You,  I. Y. Zhang,  X. Zhang,  Y. Zhao,  
 B. R. Brooks,  G. K. L. Chan,  D. M. Chipman,  C. J. Cramer,  
 W. A. Goddard III,  M. S. Gordon,  W. J. Hehre,  A. Klamt,  
 H. F. Schaefer III,  M. W. Schmidt,  C. D. Sherrill,  D. G. Truhlar,  
 A. Warshel,  X. Xu,  A. Aspuru-Guzik,  R. Baer,  A. T. Bell,  N. A. Besley,  
 J.-D. Chai,  A. Dreuw,  B. D. Dunietz,  T. R. Furlani,  S. R. Gwaltney,  
 C.-P. Hsu,  Y. Jung,  J. Kong,  D. S. Lambrecht,  W. Liang,  C. Ochsenfeld,  
 V. A. Rassolov,  L. V. Slipchenko,  J. E. Subotnik,  T. Van Voorhis,  
 J. M. Herbert,  A. I. Krylov,  P. M. W. Gill,  M. Head-Gordon

 Contributors to earlier versions of Q-Chem not listed above: 
 R. D. Adamson,  J. Baker,  E. F. C. Byrd,  A. K. Chakraborty,  C.-L. Cheng,  
 H. Dachsel,  R. J. Doerksen,  G. Hawkins,  A. Heyden,  S. Hirata,  
 G. Kedziora,  F. J. Keil,  C. Kelley,  P. P. Korambath,  W. Kurlancheek,  
 A. M. Lee,  M. S. Lee,  D. Liotard,  I. Lotan,  P. E. Maslen,  N. Nair,  
 D. Neuhauser,  R. Olson,  B. Peters,  J. Ritchie,  N. E. Schultz,  
 N. Shenvi,  A. C. Simmonett,  K. S. Thanthiriwatte,  Q. Wu,  W. Zhang

 Please cite Q-Chem as follows:
 Y. Shao et al., Mol. Phys. 113, 184-215 (2015)
 DOI: 10.1080/00268976.2014.952696

 Q-Chem 4.3.0 for Intel X86 EM64T Linux

 Parts of Q-Chem use Armadillo 5.200.1 (Boston Tea Smuggler).
 http://arma.sourceforge.net/

 Q-Chem begins on Wed Mar 29 12:48:24 2017  


Host: 0

     Scratch files written to /home/nmayhall/scratch_qchem/shrink2//
 Dec1416 |home|nmayhall|qcSoftware|qchem|qchem.svn-casman|libmdc|qstr_RNUM -1
 Using version located at /home/nmayhall/qcSoftware/qchem/qchem.svn-casman/bin/qchem

 Turning off symmetry for CASMAN

Total Memory Limit in MB = 2000
Mega-Array Size in MB = 62

Checking the input file for inconsistencies... 	...done.

 Q-Chem warning in module /home/nmayhall/qcSoftware/qchem/qchem.svn-casman/forms1/BasisType.C, line 1452:

 You are not using the predefined 5D/6D in this basis set.

Finally everything over in PARseQInput

--------------------------------------------------------------
User input:
--------------------------------------------------------------
$rem
	exchange 		hf
	unrestricted		0
	basis			6-31g*	
	aux_basis		rimp2-vdz
	scf_guess		read	
	scf_convergence		8
	scf_max_cycles		200
	purecart		1111

	symmetry		0
	sym_ignore		1

	correlation		sf-cas
	cas_n_spin_flip		1
	cas_local		1
	gui			2
$end

$development
	1sf_heis_projection	1
	scf_corresponding_orbs	1
        heisenberg_n_roots	0
$end

$molecule
read
$end

--------------------------------------------------------------
 ----------------------------------------------------------------
             Standard Nuclear Orientation (Angstroms)
    I     Atom           X                Y                Z
 ----------------------------------------------------------------
    1      H      -2.3064588000     2.7319194000    -0.2251962000
    2      H      -2.0919708000     1.3313889000     0.1504089000
    3      H      -3.3983226000     1.7605755000    -0.3575826000
    4      H      -2.9517453000     2.1856311000     0.9748755000
    5      H       0.7385580000    -0.5595642000    -0.0444771000
    6      H      -0.6259842000    -0.0282366000    -0.1116018000
    7      H      -0.3697245000    -1.2986811000     0.5723217000
    8      H      -0.2659878000    -1.2170817000    -0.8896392000
    9      H       0.8677854000     1.6806690000     0.2657205000
   10      H      -0.1424628000     2.0083383000    -0.7458237000
   11      H       0.8979822000     2.9846232000    -0.4064337000
   12      H      -0.1657179000     2.6807436000     0.5572395000
   13      H      -2.5533063000    -1.4752854000    -0.5938677000
   14      H      -2.6660502000    -0.7401942000     0.6705504000
   15      H      -3.6949689000    -1.7161470000     0.2958120000
   16      H      -3.5873604000    -0.4468608000    -0.4324671000
   17      H      -0.0406458000     0.7115202000     1.9806606000
   18      H      -1.0958409000     1.6998579000     2.2319550000
   19      H      -0.7839099000     0.6855759000     3.2452407000
   20      H      -1.4471217000     0.2953584000     1.9965366000
   21      H      -0.6943320000     0.5810616000    -2.3132385000
   22      H      -2.0345094000     0.2735289000    -1.8029223000
   23      H      -1.8420939000     0.5644728000    -3.2274693000
   24      H      -1.7103069000     1.6370586000    -2.2346442000
   25      He     10.0000000000    10.0000000000    10.0000000000
   26      He    -10.0000000000    10.0000000000    10.0000000000
 ----------------------------------------------------------------
 Nuclear Repulsion Energy =    53.5434585499 hartrees
 There are       26 alpha and        2 beta electrons
 Requested basis set is 6-31G(d)
 There are 52 shells and 52 basis functions

Total QAlloc Memory Limit   2000 MB
Mega-Array Size        61 MB
MEM_STATIC part        62 MB

finished with qalloc call

 Q-Chem warning in module /home/nmayhall/qcSoftware/qchem/qchem.svn-casman/forms1/BasisType.C, line 1375:

 SAD: How to set up polarization functions for non-Pople basis?

 Requested basis set is rimp2-VDZ
 There are 154 shells and 354 basis functions
 Job number = 2, Threshold = 1.00E-12
Integral type ranges set in mkLRange.C for JobNum: 2  <1-7|1-7>
Symmetry turned off temporarily
 Using the largest function pair in Schwarz integrals
Total number of integrals generated =            2574
Symmetry turned back on
 A cutoff of  1.0D-12 yielded   1164 shell pairs
 There are      1164 function pairs
 Job number = 11, Threshold = 1.00E-12
Integral type ranges set in mkLRange.C for JobNum: 11  <1-1|8-8>

 -------------------------------------------------------
 OpenMP Integral Computing Module                       
 Release: version 1.0, May 2013, Q-Chem Inc. Pittsburgh 
 -------------------------------------------------------
 Integral Job Info:
 Integral job number is                      11
 Integral operator is                         1
 short-range coefficients                     0
 long-range coefficients              100000000
 Omega coefficients                           0
 if combine SR and LR in K                    0
 Integral screening is                        0
 Integral computing path is                   2
 max size of driver memory is            800000
 size of driver memory is                 11780
 size of scratch memory is               800000
 max col of scratch BK array                289
 max len of scratch array in speh3            1
 max len of scratch index in speh4            2
 max int batch size is                      520
 min int batch size is                       52
 fixed nKL is                               520
 max L of basis functions is                  0
 order of int derivative is                   0
 number of shells is                         52
 number of basis is                          52
 number of cartesian basis is                52
 number of contracted shell pairs          1164
 number of primitive shell pairs           3269
 maxK2 (contraction) of shell pair            9
 max number of K2 of shell pair               1
 max number of CS2 of shell pair            629
 max number of PS2 of shell pair           1887
 mem total for path MDJ                   12564
 -------------------------------------------------------
 Smallest overlap matrix eigenvalue = 1.03E-01
 Multipole matrices computed through 2nd order

  Scale SEOQF with 1.000000e-02/1.000000e-02/1.000000e-02

 Standard Electronic Orientation quadrupole field applied
 Nucleus-field energy     =     0.0000000002 hartrees
GuessMan:  IGuess = 1000
 Guess MOs from SCF MO coefficient file
 Reading MOs from coefficient file
 Reading MOs from coefficient file
scfman initvdwdat 
 A restricted Hartree-Fock SCF calculation will be
 performed using Geometric Direct Minimization
 SCF converges when RMS gradient is below 1.0E-08
Finding J and K together
 Job number = 22, Threshold = 1.00E-12
Integral type ranges set in mkLRange.C for JobNum: 22  <1-1|1-1>
Storing 268.16% of integrals
Total number of integrals generated =          635447
 MakeJK  time:  CPU       0.18 s  wall       0.18 s
Fock build time:  0.18 s (CPU) 0.18 s (wall)
 ---------------------------------------
  Cycle       Energy        RMS Gradient
 ---------------------------------------
    1     -16.5188084880      1.22E-01  00000 Normal BFGS step
Finding J and K together
 Job number = 22, Threshold = 1.00E-12
Integral type ranges set in mkLRange.C for JobNum: 22  <1-1|1-1>
Storing 268.16% of integrals
Reusing in-core integrals buffer for job 22
 MakeJK  time:  CPU       0.03 s  wall       0.03 s
Fock build time:  0.03 s (CPU) 0.03 s (wall)
    2     -15.8033898784      3.56E-01  00000 Descent step
Finding J and K together
 Job number = 22, Threshold = 1.00E-12
Integral type ranges set in mkLRange.C for JobNum: 22  <1-1|1-1>
Storing 268.16% of integrals
Reusing in-core integrals buffer for job 22
 MakeJK  time:  CPU       0.03 s  wall       0.03 s
Fock build time:  0.03 s (CPU) 0.03 s (wall)
    3     -15.8369101323      2.30E-01  00000 Normal BFGS step
Finding J and K together
 Job number = 22, Threshold = 1.00E-12
Integral type ranges set in mkLRange.C for JobNum: 22  <1-1|1-1>
Storing 268.16% of integrals
Reusing in-core integrals buffer for job 22
 MakeJK  time:  CPU       0.03 s  wall       0.03 s
Fock build time:  0.03 s (CPU) 0.03 s (wall)
    4     -15.8621193466      8.19E-03  00000 Normal BFGS step
Finding J and K together
 Job number = 22, Threshold = 1.00E-12
Integral type ranges set in mkLRange.C for JobNum: 22  <1-1|1-1>
Storing 268.16% of integrals
Reusing in-core integrals buffer for job 22
 MakeJK  time:  CPU       0.03 s  wall       0.03 s
Fock build time:  0.03 s (CPU) 0.03 s (wall)
    5     -15.8613005623      1.66E-04  00000 Line search: overstep
Finding J and K together
 Job number = 22, Threshold = 1.00E-12
Integral type ranges set in mkLRange.C for JobNum: 22  <1-1|1-1>
Storing 268.16% of integrals
Reusing in-core integrals buffer for job 22
 MakeJK  time:  CPU       0.03 s  wall       0.03 s
Fock build time:  0.03 s (CPU) 0.03 s (wall)
    6     -15.8621524922      7.12E-03  00000 Normal BFGS step
Finding J and K together
 Job number = 22, Threshold = 1.00E-12
Integral type ranges set in mkLRange.C for JobNum: 22  <1-1|1-1>
Storing 268.16% of integrals
Reusing in-core integrals buffer for job 22
 MakeJK  time:  CPU       0.04 s  wall       0.03 s
Fock build time:  0.04 s (CPU) 0.03 s (wall)
    7     -15.8622162985      2.32E-03  00000 Normal BFGS step
Finding J and K together
 Job number = 22, Threshold = 1.00E-12
Integral type ranges set in mkLRange.C for JobNum: 22  <1-1|1-1>
Storing 268.16% of integrals
Reusing in-core integrals buffer for job 22
 MakeJK  time:  CPU       0.03 s  wall       0.03 s
Fock build time:  0.03 s (CPU) 0.03 s (wall)
    8     -15.8622321649      1.39E-03  00000 Normal BFGS step
Finding J and K together
 Job number = 22, Threshold = 1.00E-12
Integral type ranges set in mkLRange.C for JobNum: 22  <1-1|1-1>
Storing 268.16% of integrals
Reusing in-core integrals buffer for job 22
 MakeJK  time:  CPU       0.04 s  wall       0.03 s
Fock build time:  0.04 s (CPU) 0.03 s (wall)
    9     -15.8622380789      3.81E-04  00000 Normal BFGS step
Finding J and K together
 Job number = 22, Threshold = 1.00E-12
Integral type ranges set in mkLRange.C for JobNum: 22  <1-1|1-1>
Storing 268.16% of integrals
Reusing in-core integrals buffer for job 22
 MakeJK  time:  CPU       0.04 s  wall       0.03 s
Fock build time:  0.04 s (CPU) 0.03 s (wall)
   10     -15.8622386542      2.96E-04  00000 Normal BFGS step
Finding J and K together
 Job number = 22, Threshold = 1.00E-12
Integral type ranges set in mkLRange.C for JobNum: 22  <1-1|1-1>
Storing 268.16% of integrals
Reusing in-core integrals buffer for job 22
 MakeJK  time:  CPU       0.04 s  wall       0.03 s
Fock build time:  0.04 s (CPU) 0.03 s (wall)
   11     -15.8622390225      1.34E-04  00000 Normal BFGS step
Finding J and K together
 Job number = 22, Threshold = 1.00E-12
Integral type ranges set in mkLRange.C for JobNum: 22  <1-1|1-1>
Storing 268.16% of integrals
Reusing in-core integrals buffer for job 22
 MakeJK  time:  CPU       0.04 s  wall       0.04 s
Fock build time:  0.04 s (CPU) 0.04 s (wall)
   12     -15.8622390674      5.20E-05  00000 Normal BFGS step
Finding J and K together
 Job number = 22, Threshold = 1.00E-12
Integral type ranges set in mkLRange.C for JobNum: 22  <1-1|1-1>
Storing 268.16% of integrals
Reusing in-core integrals buffer for job 22
 MakeJK  time:  CPU       0.04 s  wall       0.03 s
Fock build time:  0.04 s (CPU) 0.03 s (wall)
   13     -15.8622390781      1.45E-05  00000 Normal BFGS step
Finding J and K together
 Job number = 22, Threshold = 1.00E-12
Integral type ranges set in mkLRange.C for JobNum: 22  <1-1|1-1>
Storing 268.16% of integrals
Reusing in-core integrals buffer for job 22
 MakeJK  time:  CPU       0.03 s  wall       0.03 s
Fock build time:  0.03 s (CPU) 0.03 s (wall)
   14     -15.8622390787      4.15E-06  00000 Normal BFGS step
Finding J and K together
 Job number = 22, Threshold = 1.00E-12
Integral type ranges set in mkLRange.C for JobNum: 22  <1-1|1-1>
Storing 268.16% of integrals
Reusing in-core integrals buffer for job 22
 MakeJK  time:  CPU       0.03 s  wall       0.03 s
Fock build time:  0.03 s (CPU) 0.03 s (wall)
   15     -15.8622390788      2.67E-06  00000 Normal BFGS step
Finding J and K together
 Job number = 22, Threshold = 1.00E-12
Integral type ranges set in mkLRange.C for JobNum: 22  <1-1|1-1>
Storing 268.16% of integrals
Reusing in-core integrals buffer for job 22
 MakeJK  time:  CPU       0.03 s  wall       0.03 s
Fock build time:  0.03 s (CPU) 0.03 s (wall)
   16     -15.8622390788      1.70E-06  00000 Normal BFGS step
Finding J and K together
 Job number = 22, Threshold = 1.00E-12
Integral type ranges set in mkLRange.C for JobNum: 22  <1-1|1-1>
Storing 268.16% of integrals
Reusing in-core integrals buffer for job 22
 MakeJK  time:  CPU       0.04 s  wall       0.03 s
Fock build time:  0.04 s (CPU) 0.03 s (wall)
   17     -15.8622390788      7.58E-07  00000 Normal BFGS step
Finding J and K together
 Job number = 22, Threshold = 1.00E-12
Integral type ranges set in mkLRange.C for JobNum: 22  <1-1|1-1>
Storing 268.16% of integrals
Reusing in-core integrals buffer for job 22
 MakeJK  time:  CPU       0.03 s  wall       0.03 s
Fock build time:  0.03 s (CPU) 0.03 s (wall)
   18     -15.8622390788      5.38E-07  00000 Normal BFGS step
Finding J and K together
 Job number = 22, Threshold = 1.00E-12
Integral type ranges set in mkLRange.C for JobNum: 22  <1-1|1-1>
Storing 268.16% of integrals
Reusing in-core integrals buffer for job 22
 MakeJK  time:  CPU       0.04 s  wall       0.03 s
Fock build time:  0.04 s (CPU) 0.03 s (wall)
   19     -15.8622390788      2.69E-07  00000 Normal BFGS step
Finding J and K together
 Job number = 22, Threshold = 1.00E-12
Integral type ranges set in mkLRange.C for JobNum: 22  <1-1|1-1>
Storing 268.16% of integrals
Reusing in-core integrals buffer for job 22
 MakeJK  time:  CPU       0.03 s  wall       0.03 s
Fock build time:  0.03 s (CPU) 0.03 s (wall)
   20     -15.8622390788      1.10E-07  00000 Normal BFGS step
Finding J and K together
 Job number = 22, Threshold = 1.00E-12
Integral type ranges set in mkLRange.C for JobNum: 22  <1-1|1-1>
Storing 268.16% of integrals
Reusing in-core integrals buffer for job 22
 MakeJK  time:  CPU       0.04 s  wall       0.03 s
Fock build time:  0.04 s (CPU) 0.03 s (wall)
   GDM::WARNING energy changes are now smaller than effective accuracy.
   GDM::        calculation will continue, but THRESH should be increased
   GDM::        or SCF_CONVERGENCE decreased.
   GDM::        effective_thresh =    6.6962981253720910E-010
   21     -15.8622390788      2.93E-08  00000 Normal BFGS step
Finding J and K together
 Job number = 22, Threshold = 1.00E-12
Integral type ranges set in mkLRange.C for JobNum: 22  <1-1|1-1>
Storing 268.16% of integrals
Reusing in-core integrals buffer for job 22
 MakeJK  time:  CPU       0.03 s  wall       0.03 s
Fock build time:  0.03 s (CPU) 0.03 s (wall)
   22     -15.8622390788      1.52E-08  00000 Normal BFGS step
Finding J and K together
 Job number = 22, Threshold = 1.00E-12
Integral type ranges set in mkLRange.C for JobNum: 22  <1-1|1-1>
Storing 268.16% of integrals
Reusing in-core integrals buffer for job 22
 MakeJK  time:  CPU       0.03 s  wall       0.03 s
Fock build time:  0.03 s (CPU) 0.03 s (wall)
   23     -15.8622390788      3.75E-08  00000 Normal BFGS step
Finding J and K together
 Job number = 22, Threshold = 1.00E-12
Integral type ranges set in mkLRange.C for JobNum: 22  <1-1|1-1>
Storing 268.16% of integrals
Reusing in-core integrals buffer for job 22
 MakeJK  time:  CPU       0.03 s  wall       0.03 s
Fock build time:  0.03 s (CPU) 0.03 s (wall)
   24     -15.8622390788      1.45E-08  00000 Line search: understep
Finding J and K together
 Job number = 22, Threshold = 1.00E-12
Integral type ranges set in mkLRange.C for JobNum: 22  <1-1|1-1>
Storing 268.16% of integrals
Reusing in-core integrals buffer for job 22
 MakeJK  time:  CPU       0.03 s  wall       0.03 s
Fock build time:  0.03 s (CPU) 0.03 s (wall)
   25     -15.8622390788      1.47E-07  00000 Line search: understep
Finding J and K together
 Job number = 22, Threshold = 1.00E-12
Integral type ranges set in mkLRange.C for JobNum: 22  <1-1|1-1>
Storing 268.16% of integrals
Reusing in-core integrals buffer for job 22
 MakeJK  time:  CPU       0.04 s  wall       0.03 s
Fock build time:  0.04 s (CPU) 0.03 s (wall)
   26     -15.8622390792      1.34E-06  00000 Line search: understep
Finding J and K together
 Job number = 22, Threshold = 1.00E-12
Integral type ranges set in mkLRange.C for JobNum: 22  <1-1|1-1>
Storing 268.16% of integrals
Reusing in-core integrals buffer for job 22
 MakeJK  time:  CPU       0.03 s  wall       0.03 s
Fock build time:  0.04 s (CPU) 0.03 s (wall)
   27     -15.8622391047      1.21E-05  00000 Line search: understep
Finding J and K together
 Job number = 22, Threshold = 1.00E-12
Integral type ranges set in mkLRange.C for JobNum: 22  <1-1|1-1>
Storing 268.16% of integrals
Reusing in-core integrals buffer for job 22
 MakeJK  time:  CPU       0.03 s  wall       0.03 s
Fock build time:  0.03 s (CPU) 0.03 s (wall)
   28     -15.8622411645      1.09E-04  00000 Line search: understep
Finding J and K together
 Job number = 22, Threshold = 1.00E-12
Integral type ranges set in mkLRange.C for JobNum: 22  <1-1|1-1>
Storing 268.16% of integrals
Reusing in-core integrals buffer for job 22
 MakeJK  time:  CPU       0.03 s  wall       0.03 s
Fock build time:  0.03 s (CPU) 0.03 s (wall)
   29     -15.8623994165      1.01E-03  00000 Line search: understep
Finding J and K together
 Job number = 22, Threshold = 1.00E-12
Integral type ranges set in mkLRange.C for JobNum: 22  <1-1|1-1>
Storing 268.16% of integrals
Reusing in-core integrals buffer for job 22
 MakeJK  time:  CPU       0.03 s  wall       0.03 s
Fock build time:  0.03 s (CPU) 0.03 s (wall)
   30     -15.8585083251      1.35E-02  00000 Line search: overstep
Finding J and K together
 Job number = 22, Threshold = 1.00E-12
Integral type ranges set in mkLRange.C for JobNum: 22  <1-1|1-1>
Storing 268.16% of integrals
Reusing in-core integrals buffer for job 22
 MakeJK  time:  CPU       0.03 s  wall       0.03 s
Fock build time:  0.03 s (CPU) 0.03 s (wall)
   31     -15.8627239395      1.88E-03  00000 Line search: understep
Finding J and K together
 Job number = 22, Threshold = 1.00E-12
Integral type ranges set in mkLRange.C for JobNum: 22  <1-1|1-1>
Storing 268.16% of integrals
Reusing in-core integrals buffer for job 22
 MakeJK  time:  CPU       0.03 s  wall       0.03 s
Fock build time:  0.03 s (CPU) 0.03 s (wall)
   32     -15.8608144858      1.20E-02  00000 Line search: overstep
Finding J and K together
 Job number = 22, Threshold = 1.00E-12
Integral type ranges set in mkLRange.C for JobNum: 22  <1-1|1-1>
Storing 268.16% of integrals
Reusing in-core integrals buffer for job 22
 MakeJK  time:  CPU       0.03 s  wall       0.03 s
Fock build time:  0.03 s (CPU) 0.03 s (wall)
   GDM::BFGS:   rebuilding Hinv to be positive definite
   33     -15.8630721519      9.46E-02  00000 Descent step
Finding J and K together
 Job number = 22, Threshold = 1.00E-12
Integral type ranges set in mkLRange.C for JobNum: 22  <1-1|1-1>
Storing 268.16% of integrals
Reusing in-core integrals buffer for job 22
 MakeJK  time:  CPU       0.03 s  wall       0.03 s
Fock build time:  0.03 s (CPU) 0.03 s (wall)
   34     -15.8675053897      2.54E-03  00000 Line search: understep
Finding J and K together
 Job number = 22, Threshold = 1.00E-12
Integral type ranges set in mkLRange.C for JobNum: 22  <1-1|1-1>
Storing 268.16% of integrals
Reusing in-core integrals buffer for job 22
 MakeJK  time:  CPU       0.04 s  wall       0.03 s
Fock build time:  0.04 s (CPU) 0.03 s (wall)
   GDM::BFGS:   rebuilding Hinv to be positive definite
   35     -15.9445495374      5.65E-01  00000 Descent step
Finding J and K together
 Job number = 22, Threshold = 1.00E-12
Integral type ranges set in mkLRange.C for JobNum: 22  <1-1|1-1>
Storing 268.16% of integrals
Reusing in-core integrals buffer for job 22
 MakeJK  time:  CPU       0.03 s  wall       0.03 s
Fock build time:  0.03 s (CPU) 0.03 s (wall)
   GDM::BFGS:   rebuilding Hinv to be positive definite
   36     -16.1861357055      8.39E-01  00000 Descent step
Finding J and K together
 Job number = 22, Threshold = 1.00E-12
Integral type ranges set in mkLRange.C for JobNum: 22  <1-1|1-1>
Storing 268.16% of integrals
Reusing in-core integrals buffer for job 22
 MakeJK  time:  CPU       0.04 s  wall       0.04 s
Fock build time:  0.04 s (CPU) 0.04 s (wall)
   37     -16.4316702440      3.24E-01  00000 Descent step
Finding J and K together
 Job number = 22, Threshold = 1.00E-12
Integral type ranges set in mkLRange.C for JobNum: 22  <1-1|1-1>
Storing 268.16% of integrals
Reusing in-core integrals buffer for job 22
 MakeJK  time:  CPU       0.03 s  wall       0.03 s
Fock build time:  0.04 s (CPU) 0.03 s (wall)
   38     -16.5138260484      8.20E-02  00000 Dog-leg BFGS step
Finding J and K together
 Job number = 22, Threshold = 1.00E-12
Integral type ranges set in mkLRange.C for JobNum: 22  <1-1|1-1>
Storing 268.16% of integrals
Reusing in-core integrals buffer for job 22
 MakeJK  time:  CPU       0.03 s  wall       0.03 s
Fock build time:  0.03 s (CPU) 0.03 s (wall)
   39     -16.4578829269      9.72E-03  00000 Line search: overstep
Finding J and K together
 Job number = 22, Threshold = 1.00E-12
Integral type ranges set in mkLRange.C for JobNum: 22  <1-1|1-1>
Storing 268.16% of integrals
Reusing in-core integrals buffer for job 22
 MakeJK  time:  CPU       0.03 s  wall       0.03 s
Fock build time:  0.03 s (CPU) 0.03 s (wall)
   40     -16.5142997730      7.47E-02  00000 Dog-leg BFGS step
Finding J and K together
 Job number = 22, Threshold = 1.00E-12
Integral type ranges set in mkLRange.C for JobNum: 22  <1-1|1-1>
Storing 268.16% of integrals
Reusing in-core integrals buffer for job 22
 MakeJK  time:  CPU       0.04 s  wall       0.03 s
Fock build time:  0.04 s (CPU) 0.03 s (wall)
   41     -16.5186156823      1.26E-02  00000 Normal BFGS step
Finding J and K together
 Job number = 22, Threshold = 1.00E-12
Integral type ranges set in mkLRange.C for JobNum: 22  <1-1|1-1>
Storing 268.16% of integrals
Reusing in-core integrals buffer for job 22
 MakeJK  time:  CPU       0.03 s  wall       0.03 s
Fock build time:  0.03 s (CPU) 0.03 s (wall)
   42     -16.5183048157      4.10E-04  00000 Line search: overstep
Finding J and K together
 Job number = 22, Threshold = 1.00E-12
Integral type ranges set in mkLRange.C for JobNum: 22  <1-1|1-1>
Storing 268.16% of integrals
Reusing in-core integrals buffer for job 22
 MakeJK  time:  CPU       0.03 s  wall       0.03 s
Fock build time:  0.03 s (CPU) 0.03 s (wall)
   43     -16.5186909512      1.16E-02  00000 Normal BFGS step
Finding J and K together
 Job number = 22, Threshold = 1.00E-12
Integral type ranges set in mkLRange.C for JobNum: 22  <1-1|1-1>
Storing 268.16% of integrals
Reusing in-core integrals buffer for job 22
 MakeJK  time:  CPU       0.03 s  wall       0.03 s
Fock build time:  0.03 s (CPU) 0.03 s (wall)
   44     -16.5162025130      1.14E-03  00000 Line search: overstep
Finding J and K together
 Job number = 22, Threshold = 1.00E-12
Integral type ranges set in mkLRange.C for JobNum: 22  <1-1|1-1>
Storing 268.16% of integrals
Reusing in-core integrals buffer for job 22
 MakeJK  time:  CPU       0.03 s  wall       0.03 s
Fock build time:  0.03 s (CPU) 0.03 s (wall)
   45     -16.5188028290      1.78E-03  00000 Normal BFGS step
Finding J and K together
 Job number = 22, Threshold = 1.00E-12
Integral type ranges set in mkLRange.C for JobNum: 22  <1-1|1-1>
Storing 268.16% of integrals
Reusing in-core integrals buffer for job 22
 MakeJK  time:  CPU       0.03 s  wall       0.03 s
Fock build time:  0.03 s (CPU) 0.03 s (wall)
   46     -16.5187925623      1.08E-04  00000 Line search: overstep
Finding J and K together
 Job number = 22, Threshold = 1.00E-12
Integral type ranges set in mkLRange.C for JobNum: 22  <1-1|1-1>
Storing 268.16% of integrals
Reusing in-core integrals buffer for job 22
 MakeJK  time:  CPU       0.03 s  wall       0.03 s
Fock build time:  0.03 s (CPU) 0.03 s (wall)
   47     -16.5188064935      1.01E-03  00000 Normal BFGS step
Finding J and K together
 Job number = 22, Threshold = 1.00E-12
Integral type ranges set in mkLRange.C for JobNum: 22  <1-1|1-1>
Storing 268.16% of integrals
Reusing in-core integrals buffer for job 22
 MakeJK  time:  CPU       0.04 s  wall       0.03 s
Fock build time:  0.04 s (CPU) 0.03 s (wall)
   48     -16.5187869098      1.30E-04  00000 Line search: overstep
Finding J and K together
 Job number = 22, Threshold = 1.00E-12
Integral type ranges set in mkLRange.C for JobNum: 22  <1-1|1-1>
Storing 268.16% of integrals
Reusing in-core integrals buffer for job 22
 MakeJK  time:  CPU       0.03 s  wall       0.03 s
Fock build time:  0.03 s (CPU) 0.03 s (wall)
   49     -16.5188079834      5.36E-04  00000 Normal BFGS step
Finding J and K together
 Job number = 22, Threshold = 1.00E-12
Integral type ranges set in mkLRange.C for JobNum: 22  <1-1|1-1>
Storing 268.16% of integrals
Reusing in-core integrals buffer for job 22
 MakeJK  time:  CPU       0.03 s  wall       0.03 s
Fock build time:  0.03 s (CPU) 0.03 s (wall)
   50     -16.5188083355      3.49E-04  00000 Normal BFGS step
Finding J and K together
 Job number = 22, Threshold = 1.00E-12
Integral type ranges set in mkLRange.C for JobNum: 22  <1-1|1-1>
Storing 268.16% of integrals
Reusing in-core integrals buffer for job 22
 MakeJK  time:  CPU       0.03 s  wall       0.03 s
Fock build time:  0.03 s (CPU) 0.03 s (wall)
   51     -16.5188084861      4.83E-05  00000 Normal BFGS step
Finding J and K together
 Job number = 22, Threshold = 1.00E-12
Integral type ranges set in mkLRange.C for JobNum: 22  <1-1|1-1>
Storing 268.16% of integrals
Reusing in-core integrals buffer for job 22
 MakeJK  time:  CPU       0.03 s  wall       0.03 s
Fock build time:  0.03 s (CPU) 0.03 s (wall)
   52     -16.5188084876      2.25E-05  00000 Normal BFGS step
Finding J and K together
 Job number = 22, Threshold = 1.00E-12
Integral type ranges set in mkLRange.C for JobNum: 22  <1-1|1-1>
Storing 268.16% of integrals
Reusing in-core integrals buffer for job 22
 MakeJK  time:  CPU       0.03 s  wall       0.03 s
Fock build time:  0.03 s (CPU) 0.03 s (wall)
   53     -16.5188084880      1.44E-06  00000 Normal BFGS step
Finding J and K together
 Job number = 22, Threshold = 1.00E-12
Integral type ranges set in mkLRange.C for JobNum: 22  <1-1|1-1>
Storing 268.16% of integrals
Reusing in-core integrals buffer for job 22
 MakeJK  time:  CPU       0.03 s  wall       0.03 s
Fock build time:  0.03 s (CPU) 0.03 s (wall)
   54     -16.5188084880      4.45E-07  00000 Normal BFGS step
Finding J and K together
 Job number = 22, Threshold = 1.00E-12
Integral type ranges set in mkLRange.C for JobNum: 22  <1-1|1-1>
Storing 268.16% of integrals
Reusing in-core integrals buffer for job 22
 MakeJK  time:  CPU       0.03 s  wall       0.03 s
Fock build time:  0.03 s (CPU) 0.03 s (wall)
   55     -16.5188084880      5.11E-09  00000 Convergence criterion met
 ---------------------------------------
 SCF time:  CPU 2.45 s  wall 2.45 s
 Obtaining Corresponding orbitals

 Forming corresponding orbitals block-by-block...
 Size of singly occupied alpha block:      24 : 24.0000
 Size of doubly occupied block:             2 : 2.0000
 Size of singly occupied beta block:        0 : 0.0000
 Size of unoccupied block:                 26 : 26.0000
 Use scf_boys =     0 (Canonical)
                    1 (Boys)
                    2 (Pipek-Mezey)
                    3 (ER)
 Build new fock matrix
 I'm here
 I'm here
 Calling AOints...
 Job number = 22, Threshold = 1.00E-12
Integral type ranges set in mkLRange.C for JobNum: 22  <1-1|1-1>
Storing 268.16% of integrals
 done.
 E(SCF): disk=    -16.518808487966 current=    -16.518808487966 diff=  -2.132e-14
 SCF   energy in the final basis set = -16.5188084880
 Total energy in the final basis set = -16.5188084880
 DevKeyword Parameters: 
 1sf_heis_projection                   1
  heisenberg_n_roots                   0
scf_corresponding_orbs                   1


 ========================================================
                       In SF-CAS-CI                      
 ========================================================
 DevKeyword Parameters: 
 1sf_heis_projection                   1
  heisenberg_n_roots                   0
scf_corresponding_orbs                   1

 Forming orbitals for SF-CAS calculation.
NBas   : 52
NOrb   : 52
NDOcc  : 2
NSOcc  : 24
NDVir  : 26
ISpin  : 0
e_hf: -16.51880849
 Using OPT1 Orbitals: Favg | Favg | Favg 
 A/B mix in Doubly occupied F  : 0.50000000
 A/B mix in Singly occupied F  : 0.50000000
 A/B mix in Doubly unoccupied F: 0.50000000
 Max of F(beta)ds      : 4.926e-10
 Max of F(alpha)sv     : 5.822e-10
 Max of F(average)dv   : 1.707e-10
 Orbital Energies  (D):
    1    -0.91414090    -0.91414090
    2    -0.91412474    -0.91412474
 Orbital Energies  (S):
    3    -0.54054529    -0.54054529
    4    -0.47775814    -0.47775814
    5    -0.47140803    -0.47140803
    6    -0.46589355    -0.46589355
    7    -0.44191806    -0.44191806
    8    -0.43240435    -0.43240435
    9    -0.21949661    -0.21949661
   10    -0.19207510    -0.19207510
   11    -0.18625304    -0.18625304
   12    -0.17558438    -0.17558438
   13    -0.16728823    -0.16728823
   14    -0.15875714    -0.15875714
   15    -0.13103918    -0.13103918
   16    -0.10186295    -0.10186295
   17    -0.09633892    -0.09633892
   18    -0.08845609    -0.08845609
   19    -0.08110832    -0.08110832
   20    -0.07443032    -0.07443032
   21    -0.06603238    -0.06603238
   22    -0.06239891    -0.06239891
   23    -0.05663046    -0.05663046
   24    -0.04938623    -0.04938623
   25    -0.03943657    -0.03943657
   26    -0.03342199    -0.03342199
 Orbital Energies  (V):
   27     0.90972389     0.90972389
   28     0.91946970     0.91946970
   29     0.92590950     0.92590950
   30     0.92713575     0.92713575
   31     0.93357554     0.93357554
   32     0.94531306     0.94531306
   33     0.97612625     0.97612625
   34     1.00655960     1.00655960
   35     1.01252569     1.01252569
   36     1.01614179     1.01614179
   37     1.02104278     1.02104278
   38     1.02586373     1.02586373
   39     1.03772372     1.03772372
   40     1.05067243     1.05067243
   41     1.05701952     1.05701952
   42     1.10437185     1.10437185
   43     1.11954052     1.11954052
   44     1.12300772     1.12300772
   45     1.14761334     1.14761334
   46     1.35995581     1.35995581
   47     1.39984507     1.39984507
   48     1.39986122     1.39986122
   49     1.40671061     1.40671061
   50     1.43359054     1.43359054
   51     1.46506845     1.46506845
   52     1.52093987     1.52093987
 tr(Pa)     :   26.0000000000
 tr(Pb)     :    2.0000000000
 E(core) with new P : -123.24543795
 E(HF) with new P   : -16.51880849
 Difference in Ehf  :  -9.2371e-14

 Number of spin flips: 1
 Use cas_local =    0 (Canonical)
                    1 (Boys)
                    2 (Pipek-Mezey)
                    3 (ER)
 Using Boys orbitals in casman
 
 
 
Calling Get_Boys in C++
 
 
 
Orbital 1 Variance 17.58680784
Orbital 7 Variance 18.86790760
Orbital 3 Variance 19.70370251
Orbital 19 Variance 20.26451837
Orbital 4 Variance 22.38965395
Orbital 23 Variance 22.58199274
Orbital 6 Variance 22.66295641
Orbital 9 Variance 22.82685159
Orbital 24 Variance 22.88110610
Orbital 20 Variance 22.97054232
Orbital 8 Variance 23.15081176
Orbital 12 Variance 23.33530374
Orbital 16 Variance 24.20395886
Orbital 14 Variance 24.21559650
Orbital 13 Variance 24.54843363
Orbital 2 Variance 24.69781601
Orbital 22 Variance 26.12946473
Orbital 5 Variance 26.29586669
Orbital 10 Variance 26.95526686
Orbital 21 Variance 28.37740770
Orbital 15 Variance 28.90085577
Orbital 11 Variance 29.38593019
Orbital 18 Variance 29.54245089
Orbital 17 Variance 29.94874855
          ***** NUMBER OF SADDLE POINTS SO FAR = 0 ******

Initially in boys_jacobi.C before sweep, get_boys, boysval = 206.132310
In BOYS_JACOBI SWEEPS for get_boys, ending in round     6  because max_diff = 6.038181e-07


---> BEGIN 2nd Der Calculation    ******  
Guessing MaxD =  20 and MinD = 10
in get_boys.C: p = 0 guessthresh  36.6456137967 numsofar 29 MinD 10
in get_boys.C: p = 1 guessthresh  36.1456137967 numsofar 17 MinD 10
in get_boys.C: p = 2 guessthresh  35.8956137967 numsofar 12 MinD 10
in get_boys.C: p = 3 guessthresh  35.7706137967 numsofar 8 MinD 10
DimInGuess 8 mineval  35.6456137967 guessthresh  35.7706137967
round 0 sizeofsub 8 eval0 3.488344e+01 diffeval0 1.000339e+05 length_qM 1.262230e+00 thresh 1.000000e-08
round 1 sizeofsub 9 eval0 3.446860e+01 diffeval0 4.148478e-01 length_qM 2.798228e-01 thresh 1.000000e-08
round 2 sizeofsub 10 eval0 3.446719e+01 diffeval0 1.406856e-03 length_qM 6.856446e-02 thresh 1.000000e-08
round 3 sizeofsub 11 eval0 3.446689e+01 diffeval0 2.965637e-04 length_qM 5.884289e-02 thresh 1.000000e-08
round 4 sizeofsub 12 eval0 3.446655e+01 diffeval0 3.385723e-04 length_qM 1.912099e-02 thresh 1.000000e-08
round 5 sizeofsub 13 eval0 3.446630e+01 diffeval0 2.578321e-04 length_qM 1.516873e-01 thresh 1.000000e-08
round 6 sizeofsub 14 eval0 3.431607e+01 diffeval0 1.502269e-01 length_qM 6.847112e-01 thresh 1.000000e-08
round 7 sizeofsub 15 eval0 3.424921e+01 diffeval0 6.685848e-02 length_qM 7.278646e-01 thresh 1.000000e-08
round 8 sizeofsub 16 eval0 3.421441e+01 diffeval0 3.480426e-02 length_qM 1.359324e-01 thresh 1.000000e-08
round 9 sizeofsub 17 eval0 3.421409e+01 diffeval0 3.134660e-04 length_qM 2.056279e-02 thresh 1.000000e-08
round 10 sizeofsub 18 eval0 3.421403e+01 diffeval0 6.198796e-05 length_qM 2.660612e-02 thresh 1.000000e-08
round 11 sizeofsub 19 eval0 3.421349e+01 diffeval0 5.361972e-04 length_qM 6.064277e-02 thresh 1.000000e-08
round 12 sizeofsub 20 eval0 3.421291e+01 diffeval0 5.791452e-04 length_qM 4.919377e-02 thresh 1.000000e-08
round 13 sizeofsub 11 eval0 3.420578e+01 diffeval0 7.133634e-03 length_qM 4.361117e-01 thresh 1.000000e-08
round 14 sizeofsub 12 eval0 3.420080e+01 diffeval0 4.981098e-03 length_qM 1.034262e-01 thresh 1.000000e-08
round 15 sizeofsub 13 eval0 3.419832e+01 diffeval0 2.476450e-03 length_qM 2.121358e-01 thresh 1.000000e-08
round 16 sizeofsub 14 eval0 3.419653e+01 diffeval0 1.794718e-03 length_qM 3.499816e-02 thresh 1.000000e-08
round 17 sizeofsub 15 eval0 3.419638e+01 diffeval0 1.467986e-04 length_qM 2.086026e-02 thresh 1.000000e-08
round 18 sizeofsub 16 eval0 3.419622e+01 diffeval0 1.657033e-04 length_qM 3.619433e-02 thresh 1.000000e-08
round 19 sizeofsub 17 eval0 3.419617e+01 diffeval0 4.534336e-05 length_qM 2.600059e-02 thresh 1.000000e-08
round 20 sizeofsub 18 eval0 3.419610e+01 diffeval0 7.126217e-05 length_qM 3.366376e-02 thresh 1.000000e-08
round 21 sizeofsub 19 eval0 3.419602e+01 diffeval0 7.576807e-05 length_qM 1.112569e-02 thresh 1.000000e-08
round 22 sizeofsub 20 eval0 3.419598e+01 diffeval0 4.321529e-05 length_qM 1.809570e-02 thresh 1.000000e-08
round 23 sizeofsub 11 eval0 3.419592e+01 diffeval0 5.988152e-05 length_qM 2.105036e-02 thresh 1.000000e-08
round 24 sizeofsub 12 eval0 3.419590e+01 diffeval0 2.116354e-05 length_qM 5.968548e-03 thresh 1.000000e-08
round 25 sizeofsub 13 eval0 3.419588e+01 diffeval0 1.536228e-05 length_qM 1.626736e-02 thresh 1.000000e-08
round 26 sizeofsub 14 eval0 3.419588e+01 diffeval0 6.286927e-06 length_qM 2.104258e-03 thresh 1.000000e-08
round 27 sizeofsub 15 eval0 3.419588e+01 diffeval0 9.874397e-07 length_qM 2.833404e-03 thresh 1.000000e-08
round 28 sizeofsub 16 eval0 3.419588e+01 diffeval0 1.788687e-06 length_qM 2.716695e-03 thresh 1.000000e-08
round 29 sizeofsub 17 eval0 3.419588e+01 diffeval0 2.677049e-07 length_qM 7.994257e-04 thresh 1.000000e-08
round 30 sizeofsub 18 eval0 3.419587e+01 diffeval0 1.609494e-07 length_qM 1.556622e-03 thresh 1.000000e-08
round 31 sizeofsub 19 eval0 3.419587e+01 diffeval0 8.326892e-08 length_qM 3.113010e-04 thresh 1.000000e-08
round 32 sizeofsub 20 eval0 3.419587e+01 diffeval0 8.394395e-09 length_qM 1.200412e-04 thresh 1.000000e-08
round 33 sizeofsub 11 eval0 3.419587e+01 diffeval0 9.357066e-10 length_qM 4.471819e-05 thresh 1.000000e-08
round 34 sizeofsub 12 eval0 3.419587e+01 diffeval0 5.261498e-10 length_qM 8.024279e-05 thresh 1.000000e-08
round 35 sizeofsub 13 eval0 3.419587e+01 diffeval0 1.521840e-10 length_qM 1.489844e-05 thresh 1.000000e-08
round 36 sizeofsub 14 eval0 3.419587e+01 diffeval0 3.048939e-11 length_qM 1.796509e-05 thresh 1.000000e-08
round 37 sizeofsub 15 eval0 3.419587e+01 diffeval0 1.845279e-11 length_qM 9.394724e-06 thresh 1.000000e-08
round 38 sizeofsub 16 eval0 3.419587e+01 diffeval0 2.621903e-12 length_qM 1.840724e-06 thresh 1.000000e-08
round 39 sizeofsub 17 eval0 3.419587e+01 diffeval0 1.065814e-13 length_qM 3.467037e-07 thresh 1.000000e-08
Converged to smallest eigenvalue: eval0 3.419587e+01

Success!!! No Negative Eigenvalues: Ending Get Boys in C++ ...Bye Bye
Orbital 19 Variance 2.65530451
Orbital 12 Variance 2.65653463
Orbital 17 Variance 2.67708937
Orbital 24 Variance 2.68052332
Orbital 21 Variance 2.69422766
Orbital 7 Variance 2.69792047
Orbital 20 Variance 2.70718023
Orbital 23 Variance 2.71189285
Orbital 11 Variance 2.71345391
Orbital 8 Variance 2.71950585
Orbital 22 Variance 2.72204074
Orbital 18 Variance 2.72275345
Orbital 13 Variance 2.72496536
Orbital 10 Variance 2.72608255
Orbital 15 Variance 2.72951340
Orbital 9 Variance 2.73277378
Orbital 6 Variance 2.73310514
Orbital 14 Variance 2.73480643
Orbital 16 Variance 2.73886095
Orbital 3 Variance 2.74515324
Orbital 1 Variance 2.76353549
Orbital 4 Variance 2.76358390
Orbital 2 Variance 2.76500523
Orbital 5 Variance 2.76524711
EXECUTING ORTHO_FUNC DESTRUCTOR

 Dimensions of orbital sub-spaces:    
 Number Hole Orbs:Alpha:Beta:       2    2    2
 Number Active Orbs:Alpha:Beta:    24   23    1
 Number Part Orbs:Alpha:Beta:      26    0    0

 Dimensions in SF-RAS-hp calculation: 
 Number of active space determinants:  576
 Number of hole space determinants:    13296
 Number of part space determinants:    172848
 Number of hole-part determinants:     4021108
 Total 1x space:                       186720
 Total singles space:                  4207828
 REM_MEM_TOT: 2000
 Memory Used: 0
 Memory Left: 2000
 Memory Need: 18
 Constructing 1e MO integrals
 Form (P|Q)**(-1/2)...
 Job number = 66, Threshold = 1.00E-12
Integral type ranges set in mkLRange.C for JobNum: 66  <2-7|2-7>
Symmetry turned off temporarily
Storing 268.16% of integrals
Total number of integrals generated =           72147
Symmetry turned back on
 Forming (pq|P)...
 Forming Active-Active (aa|P) integrals...

 Entering first-index batching code with I1Strt =    3 batch size =   24
 Job number = 65, Threshold = 1.00E-12
Integral type ranges set in mkLRange.C for JobNum: 65  <1-1|2-7>
Symmetry turned off temporarily
Storing 268.16% of integrals
Total number of integrals generated =          439992
Symmetry turned back on
 Forming Active-Active B integrals...
 Contracting B matrices to form 2e integrals. 
 Forming 2J-K over o,v with exact integrals
 Calling AOints... Job number = 22, Threshold = 1.00E-12
Integral type ranges set in mkLRange.C for JobNum: 22  <1-1|1-1>
Storing 268.16% of integrals
Total number of integrals generated =          635447
 done.

 ROHF energy found on disk: 
 E(ROHF):         -16.51880849
-16.51880849
 First 10 Diagonal elements of H: 
 11111111111111111111111_ | 1_______________________        -15.94993376
 11111111111111111111111_ | _1______________________        -15.89223023
 11111111111111111111111_ | __1_____________________        -15.94650693
 11111111111111111111111_ | ___1____________________        -16.11128663
 11111111111111111111111_ | ____1___________________        -15.91391744
 11111111111111111111111_ | _____1__________________        -15.94696867
 11111111111111111111111_ | ______1_________________        -15.99046505
 11111111111111111111111_ | _______1________________        -15.92692670
 11111111111111111111111_ | ________1_______________        -16.04591321
 11111111111111111111111_ | _________1______________        -15.97202477
 Fill S2_CAS Matrix...  done.
 Fill H_CAS Matrix...  done.

 Diagonalizing H_CAS 
 Entering cast_sfcas_to_sfcis
 ===================================================================
 Theory           State:          Energy (au)       (eV)       <S2>
 -------------------------------------------------------------------
 SF-CAS               1:       -16.6778804449     0.0000   132.0000
 SF-CAS               2:       -16.6776747792     0.0056   132.0000
 SF-CAS               3:       -16.6726980677     0.1410   132.0000
 SF-CAS               4:       -16.6708539910     0.1912   132.0000
 SF-CAS               5:       -16.6681131138     0.2658   132.0000
 SF-CAS               6:       -16.6668346888     0.3006   132.0000
 SF-CAS               7:       -16.6654218544     0.3390   132.0000
 SF-CAS               8:       -16.6629396037     0.4066   132.0000
 SF-CAS               9:       -16.6622909840     0.4242   132.0000
 SF-CAS              10:       -16.6606835434     0.4680   132.0000
 SF-CAS              11:       -16.6592345692     0.5074   132.0000
 SF-CAS              12:       -16.6565778970     0.5797   132.0000
 SF-CAS              13:       -16.6554644787     0.6100   132.0000
 SF-CAS              14:       -16.6549947260     0.6228   132.0000
 SF-CAS              15:       -16.6545302939     0.6354   132.0000
 SF-CAS              16:       -16.6541361891     0.6461   132.0000
 SF-CAS              17:       -16.6535797367     0.6613   132.0000
 SF-CAS              18:       -16.6523172907     0.6956   132.0000
 SF-CAS              19:       -16.5431659923     3.6658   132.0000
 SF-CAS              20:       -16.5413485625     3.7153   132.0000
 SF-CAS              21:       -16.5396865224     3.7605   132.0000
 SF-CAS              22:       -16.5349814895     3.8885   132.0000
 SF-CAS              23:       -16.5331273716     3.9390   132.0000
 SF-CAS              24:       -16.5188084880     4.3286   156.0000
 SF-CAS              25:       -16.4402620089     6.4660   132.0000
 SF-CAS              26:       -16.4301185438     6.7420   132.0000
 SF-CAS              27:       -16.4253012510     6.8731   132.0000
 SF-CAS              28:       -16.4242063425     6.9029   132.0000
 SF-CAS              29:       -16.4193421622     7.0353   132.0000
 SF-CAS              30:       -16.4178720496     7.0753   132.0000
 SF-CAS              31:       -16.4118264583     7.2398   132.0000
 SF-CAS              32:       -16.4081991036     7.3385   132.0000
 SF-CAS              33:       -16.4050695030     7.4236   132.0000
 SF-CAS              34:       -16.4026868872     7.4885   132.0000
 SF-CAS              35:       -16.4002671137     7.5543   132.0000
 SF-CAS              36:       -16.3990249710     7.5881   132.0000
 SF-CAS              37:       -16.3964631968     7.6578   132.0000
 SF-CAS              38:       -16.3922885410     7.7714   132.0000
 SF-CAS              39:       -16.3876285693     7.8982   132.0000
 SF-CAS              40:       -16.3834808194     8.0111   132.0000
 SF-CAS              41:       -16.3801429729     8.1019   132.0000
 SF-CAS              42:       -16.3785592021     8.1450   132.0000
 SF-CAS              43:       -16.3777933853     8.1659   132.0000
 SF-CAS              44:       -16.3750638882     8.2401   132.0000
 SF-CAS              45:       -16.3726995499     8.3045   132.0000
 SF-CAS              46:       -16.3721531513     8.3193   132.0000
 SF-CAS              47:       -16.3688738529     8.4086   132.0000
 SF-CAS              48:       -16.3659353191     8.4885   132.0000
 SF-CAS              49:       -16.3620522770     8.5942   132.0000
 SF-CAS              50:       -16.3607564709     8.6295   132.0000
 SF-CAS              51:       -16.3597492036     8.6569   132.0000
 SF-CAS              52:       -16.3570462000     8.7304   132.0000
 SF-CAS              53:       -16.3557199892     8.7665   132.0000
 SF-CAS              54:       -16.3553203390     8.7774   132.0000
 SF-CAS              55:       -16.3527539427     8.8472   132.0000
 SF-CAS              56:       -16.3498583641     8.9260   132.0000
 SF-CAS              57:       -16.3490494032     8.9480   132.0000
 SF-CAS              58:       -16.3476031348     8.9874   132.0000
 SF-CAS              59:       -16.3469278912     9.0058   132.0000
 SF-CAS              60:       -16.3450073833     9.0580   132.0000
 SF-CAS              61:       -16.3434343164     9.1008   132.0000
 SF-CAS              62:       -16.3418971758     9.1427   132.0000
 SF-CAS              63:       -16.3405840891     9.1784   132.0000
 SF-CAS              64:       -16.3401309470     9.1907   132.0000
 SF-CAS              65:       -16.3372647502     9.2687   132.0000
 SF-CAS              66:       -16.3366832589     9.2845   132.0000
 SF-CAS              67:       -16.3341791968     9.3527   132.0000
 SF-CAS              68:       -16.3322822078     9.4043   132.0000
 SF-CAS              69:       -16.3309577922     9.4403   132.0000
 SF-CAS              70:       -16.3290640665     9.4919   132.0000
 SF-CAS              71:       -16.3269617461     9.5491   132.0000
 SF-CAS              72:       -16.3250248168     9.6018   132.0000
 SF-CAS              73:       -16.3243165241     9.6211   132.0000
 SF-CAS              74:       -16.3213011397     9.7031   132.0000
 SF-CAS              75:       -16.3182810752     9.7853   132.0000
 SF-CAS              76:       -16.3167905441     9.8259   132.0000
 SF-CAS              77:       -16.3145118884     9.8879   132.0000
 SF-CAS              78:       -16.3121588721     9.9519   132.0000
 SF-CAS              79:       -16.3109308067     9.9853   132.0000
 SF-CAS              80:       -16.3097917583    10.0163   132.0000
 SF-CAS              81:       -16.3059370792    10.1212   132.0000
 SF-CAS              82:       -16.3040478372    10.1726   132.0000
 SF-CAS              83:       -16.3032184606    10.1952   132.0000
 SF-CAS              84:       -16.3029351428    10.2029   132.0000
 SF-CAS              85:       -16.3012243548    10.2494   132.0000
 SF-CAS              86:       -16.2996682759    10.2918   132.0000
 SF-CAS              87:       -16.2992244018    10.3039   132.0000
 SF-CAS              88:       -16.2984603313    10.3246   132.0000
 SF-CAS              89:       -16.2957877877    10.3974   132.0000
 SF-CAS              90:       -16.2943566213    10.4363   132.0000
 SF-CAS              91:       -16.2920613850    10.4988   132.0000
 SF-CAS              92:       -16.2910023167    10.5276   132.0000
 SF-CAS              93:       -16.2906806673    10.5363   132.0000
 SF-CAS              94:       -16.2893986742    10.5712   132.0000
 SF-CAS              95:       -16.2886005250    10.5929   132.0000
 SF-CAS              96:       -16.2872403117    10.6300   132.0000
 SF-CAS              97:       -16.2855060996    10.6772   132.0000
 SF-CAS              98:       -16.2822110981    10.7668   132.0000
 SF-CAS              99:       -16.2782997153    10.8733   132.0000
 SF-CAS             100:       -16.2774953713    10.8951   132.0000
 SF-CAS             101:       -16.2764774065    10.9228   132.0000
 SF-CAS             102:       -16.2749145109    10.9654   132.0000
 SF-CAS             103:       -16.2723220110    11.0359   132.0000
 SF-CAS             104:       -16.2715607925    11.0566   132.0000
 SF-CAS             105:       -16.2689808161    11.1268   132.0000
 SF-CAS             106:       -16.2672902370    11.1728   132.0000
 SF-CAS             107:       -16.2650836745    11.2329   132.0000
 SF-CAS             108:       -16.2624902998    11.3035   132.0000
 SF-CAS             109:       -16.2609711415    11.3448   132.0000
 SF-CAS             110:       -16.2585487829    11.4107   132.0000
 SF-CAS             111:       -16.2574516706    11.4406   132.0000
 SF-CAS             112:       -16.2565593972    11.4648   132.0000
 SF-CAS             113:       -16.2520165634    11.5885   132.0000
 SF-CAS             114:       -16.2506311659    11.6262   132.0000
 SF-CAS             115:       -16.2484565990    11.6853   132.0000
 SF-CAS             116:       -16.2466825051    11.7336   132.0000
 SF-CAS             117:       -16.2449528593    11.7807   132.0000
 SF-CAS             118:       -16.2403663322    11.9055   132.0000
 SF-CAS             119:       -16.2383064486    11.9615   132.0000
 SF-CAS             120:       -16.2335648856    12.0906   132.0000
 SF-CAS             121:       -16.2320579638    12.1316   132.0000
 SF-CAS             122:       -16.2284675522    12.2293   132.0000
 SF-CAS             123:       -16.2215556224    12.4174   132.0000
 SF-CAS             124:       -16.2181483452    12.5101   132.0000
 SF-CAS             125:       -16.2135062789    12.6364   132.0000
 SF-CAS             126:       -16.2131637782    12.6457   132.0000
 SF-CAS             127:       -16.2116847914    12.6860   132.0000
 SF-CAS             128:       -16.2104175132    12.7204   132.0000
 SF-CAS             129:       -16.2087843811    12.7649   132.0000
 SF-CAS             130:       -16.2066994138    12.8216   132.0000
 SF-CAS             131:       -16.2065243710    12.8264   132.0000
 SF-CAS             132:       -16.2056426202    12.8504   132.0000
 SF-CAS             133:       -16.2032343725    12.9159   132.0000
 SF-CAS             134:       -16.2007816698    12.9826   132.0000
 SF-CAS             135:       -16.1985142942    13.0443   132.0000
 SF-CAS             136:       -16.1967276128    13.0930   132.0000
 SF-CAS             137:       -16.1952450987    13.1333   132.0000
 SF-CAS             138:       -16.1950095932    13.1397   132.0000
 SF-CAS             139:       -16.1930489965    13.1931   132.0000
 SF-CAS             140:       -16.1906579578    13.2581   132.0000
 SF-CAS             141:       -16.1905040075    13.2623   132.0000
 SF-CAS             142:       -16.1896216470    13.2863   132.0000
 SF-CAS             143:       -16.1888078570    13.3085   132.0000
 SF-CAS             144:       -16.1869805895    13.3582   132.0000
 SF-CAS             145:       -16.1860635097    13.3832   132.0000
 SF-CAS             146:       -16.1836638966    13.4484   132.0000
 SF-CAS             147:       -16.1834391875    13.4546   132.0000
 SF-CAS             148:       -16.1816709826    13.5027   132.0000
 SF-CAS             149:       -16.1808736124    13.5244   132.0000
 SF-CAS             150:       -16.1807388605    13.5280   132.0000
 SF-CAS             151:       -16.1798202384    13.5530   132.0000
 SF-CAS             152:       -16.1780944505    13.6000   132.0000
 SF-CAS             153:       -16.1777208027    13.6102   132.0000
 SF-CAS             154:       -16.1742747108    13.7039   132.0000
 SF-CAS             155:       -16.1730679520    13.7368   132.0000
 SF-CAS             156:       -16.1721388916    13.7621   132.0000
 SF-CAS             157:       -16.1686303600    13.8575   132.0000
 SF-CAS             158:       -16.1669082006    13.9044   132.0000
 SF-CAS             159:       -16.1655822956    13.9405   132.0000
 SF-CAS             160:       -16.1621525290    14.0338   132.0000
 SF-CAS             161:       -16.1610948429    14.0626   132.0000
 SF-CAS             162:       -16.1583071802    14.1384   132.0000
 SF-CAS             163:       -16.1521479754    14.3060   132.0000
 SF-CAS             164:       -16.1478322933    14.4235   132.0000
 SF-CAS             165:       -16.1436791227    14.5365   132.0000
 SF-CAS             166:       -16.1382419952    14.6845   132.0000
 SF-CAS             167:       -16.1352383590    14.7662   132.0000
 SF-CAS             168:       -16.1322413804    14.8477   132.0000
 SF-CAS             169:       -16.1296071806    14.9194   132.0000
 SF-CAS             170:       -16.1270303556    14.9895   132.0000
 SF-CAS             171:       -16.1268775222    14.9937   132.0000
 SF-CAS             172:       -16.1248515518    15.0488   132.0000
 SF-CAS             173:       -16.1192808694    15.2004   132.0000
 SF-CAS             174:       -16.1181704159    15.2306   132.0000
 SF-CAS             175:       -16.1170049396    15.2623   132.0000
 SF-CAS             176:       -16.1132976926    15.3632   132.0000
 SF-CAS             177:       -16.1126266190    15.3815   132.0000
 SF-CAS             178:       -16.1102608461    15.4459   132.0000
 SF-CAS             179:       -16.1085421982    15.4926   132.0000
 SF-CAS             180:       -16.1077179623    15.5151   132.0000
 SF-CAS             181:       -16.1063618072    15.5520   132.0000
 SF-CAS             182:       -16.1028683942    15.6470   132.0000
 SF-CAS             183:       -16.1025592169    15.6554   132.0000
 SF-CAS             184:       -16.1016934592    15.6790   132.0000
 SF-CAS             185:       -16.0992918504    15.7444   132.0000
 SF-CAS             186:       -16.0981035568    15.7767   132.0000
 SF-CAS             187:       -16.0960480103    15.8326   132.0000
 SF-CAS             188:       -16.0955219683    15.8469   132.0000
 SF-CAS             189:       -16.0931365354    15.9118   132.0000
 SF-CAS             190:       -16.0903831375    15.9868   132.0000
 SF-CAS             191:       -16.0893693104    16.0144   132.0000
 SF-CAS             192:       -16.0890619502    16.0227   132.0000
 SF-CAS             193:       -16.0883273602    16.0427   132.0000
 SF-CAS             194:       -16.0872598292    16.0718   132.0000
 SF-CAS             195:       -16.0868313080    16.0834   132.0000
 SF-CAS             196:       -16.0850772429    16.1312   132.0000
 SF-CAS             197:       -16.0840525645    16.1590   132.0000
 SF-CAS             198:       -16.0836076444    16.1711   132.0000
 SF-CAS             199:       -16.0821095518    16.2119   132.0000
 SF-CAS             200:       -16.0795745364    16.2809   132.0000
 SF-CAS             201:       -16.0787162336    16.3042   132.0000
 SF-CAS             202:       -16.0781229202    16.3204   132.0000
 SF-CAS             203:       -16.0778082166    16.3290   132.0000
 SF-CAS             204:       -16.0768315086    16.3555   132.0000
 SF-CAS             205:       -16.0756083294    16.3888   132.0000
 SF-CAS             206:       -16.0736662961    16.4417   132.0000
 SF-CAS             207:       -16.0727144943    16.4676   132.0000
 SF-CAS             208:       -16.0706208062    16.5245   132.0000
 SF-CAS             209:       -16.0701265102    16.5380   132.0000
 SF-CAS             210:       -16.0692423486    16.5620   132.0000
 SF-CAS             211:       -16.0676154574    16.6063   132.0000
 SF-CAS             212:       -16.0667187228    16.6307   132.0000
 SF-CAS             213:       -16.0656943503    16.6586   132.0000
 SF-CAS             214:       -16.0651061507    16.6746   132.0000
 SF-CAS             215:       -16.0634733622    16.7190   132.0000
 SF-CAS             216:       -16.0631159359    16.7288   132.0000
 SF-CAS             217:       -16.0619067356    16.7617   132.0000
 SF-CAS             218:       -16.0613149398    16.7778   132.0000
 SF-CAS             219:       -16.0602307488    16.8073   132.0000
 SF-CAS             220:       -16.0592771550    16.8332   132.0000
 SF-CAS             221:       -16.0580704346    16.8661   132.0000
 SF-CAS             222:       -16.0577830537    16.8739   132.0000
 SF-CAS             223:       -16.0561962998    16.9171   132.0000
[...]
 J( 3,21) =           -65.654874  : J'( 3,21) =            32.827437  (cm-1)
 J( 3,22) =          -108.353427  : J'( 3,22) =            54.176714  (cm-1)
 J( 3,23) =          -375.925842  : J'( 3,23) =           187.962921  (cm-1)
 J( 4, 5) =         12780.559027  : J'( 4, 5) =         -6390.279513  (cm-1)
 J( 4, 6) =         14768.370537  : J'( 4, 6) =         -7384.185269  (cm-1)
 J( 4, 7) =         15360.574229  : J'( 4, 7) =         -7680.287114  (cm-1)
 J( 4, 8) =          2659.249779  : J'( 4, 8) =         -1329.624890  (cm-1)
 J( 4, 9) =           635.175133  : J'( 4, 9) =          -317.587566  (cm-1)
 J( 4,10) =           161.536928  : J'( 4,10) =           -80.768464  (cm-1)
 J( 4,11) =             9.382418  : J'( 4,11) =            -4.691209  (cm-1)
 J( 4,12) =          -412.637143  : J'( 4,12) =           206.318571  (cm-1)
 J( 4,13) =          -153.311568  : J'( 4,13) =            76.655784  (cm-1)
 J( 4,14) =          -117.093797  : J'( 4,14) =            58.546899  (cm-1)
 J( 4,15) =           -68.175374  : J'( 4,15) =            34.087687  (cm-1)
 J( 4,16) =           786.378694  : J'( 4,16) =          -393.189347  (cm-1)
 J( 4,17) =            85.045759  : J'( 4,17) =           -42.522879  (cm-1)
 J( 4,18) =             1.527164  : J'( 4,18) =            -0.763582  (cm-1)
 J( 4,19) =             8.901773  : J'( 4,19) =            -4.450886  (cm-1)
 J( 4,20) =           310.743847  : J'( 4,20) =          -155.371924  (cm-1)
 J( 4,21) =            58.751978  : J'( 4,21) =           -29.375989  (cm-1)
 J( 4,22) =           -48.331860  : J'( 4,22) =            24.165930  (cm-1)
 J( 4,23) =           -39.853063  : J'( 4,23) =            19.926531  (cm-1)
 J( 5, 6) =         12525.950648  : J'( 5, 6) =         -6262.975324  (cm-1)
 J( 5, 7) =         12647.315716  : J'( 5, 7) =         -6323.657858  (cm-1)
 J( 5, 8) =          1507.057212  : J'( 5, 8) =          -753.528606  (cm-1)
 J( 5, 9) =          2628.301641  : J'( 5, 9) =         -1314.150820  (cm-1)
 J( 5,10) =           -42.654552  : J'( 5,10) =            21.327276  (cm-1)
 J( 5,11) =           132.224097  : J'( 5,11) =           -66.112049  (cm-1)
 J( 5,12) =           580.302637  : J'( 5,12) =          -290.151319  (cm-1)
 J( 5,13) =          1239.622755  : J'( 5,13) =          -619.811378  (cm-1)
 J( 5,14) =            93.493072  : J'( 5,14) =           -46.746536  (cm-1)
 J( 5,15) =           -66.975140  : J'( 5,15) =            33.487570  (cm-1)
 J( 5,16) =          1665.146160  : J'( 5,16) =          -832.573080  (cm-1)
 J( 5,17) =           186.939545  : J'( 5,17) =           -93.469773  (cm-1)
 J( 5,18) =           -27.662681  : J'( 5,18) =            13.831341  (cm-1)
 J( 5,19) =          1166.682551  : J'( 5,19) =          -583.341275  (cm-1)
 J( 5,20) =          1539.945483  : J'( 5,20) =          -769.972741  (cm-1)
 J( 5,21) =          2270.464096  : J'( 5,21) =         -1135.232048  (cm-1)
 J( 5,22) =            27.468039  : J'( 5,22) =           -13.734019  (cm-1)
 J( 5,23) =          -150.372904  : J'( 5,23) =            75.186452  (cm-1)
 J( 6, 7) =         14049.355269  : J'( 6, 7) =         -7024.677634  (cm-1)
 J( 6, 8) =          -197.925276  : J'( 6, 8) =            98.962638  (cm-1)
 J( 6, 9) =           196.659537  : J'( 6, 9) =           -98.329769  (cm-1)
 J( 6,10) =           -91.195897  : J'( 6,10) =            45.597949  (cm-1)
 J( 6,11) =            51.765880  : J'( 6,11) =           -25.882940  (cm-1)
 J( 6,12) =          1218.272338  : J'( 6,12) =          -609.136169  (cm-1)
 J( 6,13) =          1670.782234  : J'( 6,13) =          -835.391117  (cm-1)
 J( 6,14) =           231.855577  : J'( 6,14) =          -115.927788  (cm-1)
 J( 6,15) =            15.344251  : J'( 6,15) =            -7.672125  (cm-1)
 J( 6,16) =          1413.023344  : J'( 6,16) =          -706.511672  (cm-1)
 J( 6,17) =             5.953478  : J'( 6,17) =            -2.976739  (cm-1)
 J( 6,18) =           193.018852  : J'( 6,18) =           -96.509426  (cm-1)
 J( 6,19) =          1489.041049  : J'( 6,19) =          -744.520524  (cm-1)
 J( 6,20) =          -236.357338  : J'( 6,20) =           118.178669  (cm-1)
 J( 6,21) =            40.286187  : J'( 6,21) =           -20.143094  (cm-1)
 J( 6,22) =          -119.152220  : J'( 6,22) =            59.576110  (cm-1)
 J( 6,23) =          -103.311644  : J'( 6,23) =            51.655822  (cm-1)
 J( 7, 8) =            -4.177882  : J'( 7, 8) =             2.088941  (cm-1)
 J( 7, 9) =           152.818394  : J'( 7, 9) =           -76.409197  (cm-1)
 J( 7,10) =           -59.894690  : J'( 7,10) =            29.947345  (cm-1)
 J( 7,11) =            -7.315885  : J'( 7,11) =             3.657942  (cm-1)
 J( 7,12) =          2200.496224  : J'( 7,12) =         -1100.248112  (cm-1)
 J( 7,13) =           188.351273  : J'( 7,13) =           -94.175637  (cm-1)
 J( 7,14) =           166.183098  : J'( 7,14) =           -83.091549  (cm-1)
 J( 7,15) =            28.372219  : J'( 7,15) =           -14.186110  (cm-1)
 J( 7,16) =          -315.356710  : J'( 7,16) =           157.678355  (cm-1)
 J( 7,17) =           -54.772321  : J'( 7,17) =            27.386161  (cm-1)
 J( 7,18) =          -145.284240  : J'( 7,18) =            72.642120  (cm-1)
 J( 7,19) =           -96.214703  : J'( 7,19) =            48.107351  (cm-1)
 J( 7,20) =          2292.899831  : J'( 7,20) =         -1146.449915  (cm-1)
 J( 7,21) =          1098.531503  : J'( 7,21) =          -549.265752  (cm-1)
 J( 7,22) =           169.706396  : J'( 7,22) =           -84.853198  (cm-1)
 J( 7,23) =           -65.946589  : J'( 7,23) =            32.973295  (cm-1)
 J( 8, 9) =         13232.350304  : J'( 8, 9) =         -6616.175152  (cm-1)
 J( 8,10) =         14714.011314  : J'( 8,10) =         -7357.005657  (cm-1)
 J( 8,11) =         13399.911623  : J'( 8,11) =         -6699.955812  (cm-1)
 J( 8,12) =            63.822845  : J'( 8,12) =           -31.911422  (cm-1)
 J( 8,13) =            77.260033  : J'( 8,13) =           -38.630016  (cm-1)
 J( 8,14) =            19.674987  : J'( 8,14) =            -9.837494  (cm-1)
 J( 8,15) =            18.245563  : J'( 8,15) =            -9.122781  (cm-1)
 J( 8,16) =          3434.361955  : J'( 8,16) =         -1717.180977  (cm-1)
 J( 8,17) =           513.722635  : J'( 8,17) =          -256.861317  (cm-1)
 J( 8,18) =           205.687081  : J'( 8,18) =          -102.843540  (cm-1)
 J( 8,19) =           177.843141  : J'( 8,19) =           -88.921571  (cm-1)
 J( 8,20) =           445.095896  : J'( 8,20) =          -222.547948  (cm-1)
 J( 8,21) =           -46.907469  : J'( 8,21) =            23.453734  (cm-1)
 J( 8,22) =           -70.066182  : J'( 8,22) =            35.033091  (cm-1)
 J( 8,23) =           327.246940  : J'( 8,23) =          -163.623470  (cm-1)
 J( 9,10) =         14345.979312  : J'( 9,10) =         -7172.989656  (cm-1)
 J( 9,11) =         12408.238860  : J'( 9,11) =         -6204.119430  (cm-1)
 J( 9,12) =            47.507655  : J'( 9,12) =           -23.753828  (cm-1)
 J( 9,13) =           -44.353119  : J'( 9,13) =            22.176560  (cm-1)
 J( 9,14) =           -19.941978  : J'( 9,14) =             9.970989  (cm-1)
 J( 9,15) =            75.838424  : J'( 9,15) =           -37.919212  (cm-1)
 J( 9,16) =          -136.100051  : J'( 9,16) =            68.050025  (cm-1)
 J( 9,17) =           120.738769  : J'( 9,17) =           -60.369384  (cm-1)
 J( 9,18) =             1.899866  : J'( 9,18) =            -0.949933  (cm-1)
 J( 9,19) =            37.146662  : J'( 9,19) =           -18.573331  (cm-1)
 J( 9,20) =          3079.834003  : J'( 9,20) =         -1539.917001  (cm-1)
 J( 9,21) =          -370.453404  : J'( 9,21) =           185.226702  (cm-1)
 J( 9,22) =          -247.095622  : J'( 9,22) =           123.547811  (cm-1)
 J( 9,23) =          2951.499450  : J'( 9,23) =         -1475.749725  (cm-1)
 J(10,11) =         14436.020962  : J'(10,11) =         -7218.010481  (cm-1)
 J(10,12) =             3.900644  : J'(10,12) =            -1.950322  (cm-1)
 J(10,13) =           -21.814308  : J'(10,13) =            10.907154  (cm-1)
 J(10,14) =           -17.118621  : J'(10,14) =             8.559310  (cm-1)
 J(10,15) =            19.697748  : J'(10,15) =            -9.848874  (cm-1)
 J(10,16) =            69.542020  : J'(10,16) =           -34.771010  (cm-1)
 J(10,17) =           204.938324  : J'(10,17) =          -102.469162  (cm-1)
 J(10,18) =           -28.364464  : J'(10,18) =            14.182232  (cm-1)
 J(10,19) =            30.146588  : J'(10,19) =           -15.073294  (cm-1)
 J(10,20) =           481.724096  : J'(10,20) =          -240.862048  (cm-1)
 J(10,21) =           -60.881239  : J'(10,21) =            30.440619  (cm-1)
 J(10,22) =           -79.904354  : J'(10,22) =            39.952177  (cm-1)
 J(10,23) =           500.915387  : J'(10,23) =          -250.457694  (cm-1)
 J(11,12) =            -2.162111  : J'(11,12) =             1.081056  (cm-1)
 J(11,13) =            74.528858  : J'(11,13) =           -37.264429  (cm-1)
 J(11,14) =            10.726447  : J'(11,14) =            -5.363224  (cm-1)
 J(11,15) =            63.207173  : J'(11,15) =           -31.603586  (cm-1)
 J(11,16) =          1362.988152  : J'(11,16) =          -681.494076  (cm-1)
 J(11,17) =          3888.485291  : J'(11,17) =         -1944.242646  (cm-1)
 J(11,18) =            67.677879  : J'(11,18) =           -33.838939  (cm-1)
 J(11,19) =            27.396089  : J'(11,19) =           -13.698045  (cm-1)
 J(11,20) =           258.393586  : J'(11,20) =          -129.196793  (cm-1)
 J(11,21) =           -60.724361  : J'(11,21) =            30.362181  (cm-1)
 J(11,22) =           -90.315691  : J'(11,22) =            45.157846  (cm-1)
 J(11,23) =           221.748187  : J'(11,23) =          -110.874094  (cm-1)
 J(12,13) =         13484.848310  : J'(12,13) =         -6742.424155  (cm-1)
 J(12,14) =         14539.286461  : J'(12,14) =         -7269.643230  (cm-1)
 J(12,15) =         12140.411228  : J'(12,15) =         -6070.205614  (cm-1)
 J(12,16) =            36.302091  : J'(12,16) =           -18.151046  (cm-1)
 J(12,17) =            10.389192  : J'(12,17) =            -5.194596  (cm-1)
 J(12,18) =            55.002770  : J'(12,18) =           -27.501385  (cm-1)
 J(12,19) =           249.753954  : J'(12,19) =          -124.876977  (cm-1)
 J(12,20) =           268.246416  : J'(12,20) =          -134.123208  (cm-1)
 J(12,21) =          3038.249463  : J'(12,21) =         -1519.124731  (cm-1)
 J(12,22) =           503.495488  : J'(12,22) =          -251.747744  (cm-1)
 J(12,23) =           345.481928  : J'(12,23) =          -172.740964  (cm-1)
 J(13,14) =         14339.609614  : J'(13,14) =         -7169.804807  (cm-1)
 J(13,15) =         13742.400181  : J'(13,15) =         -6871.200091  (cm-1)
 J(13,16) =           102.150001  : J'(13,16) =           -51.075001  (cm-1)
 J(13,17) =           184.379589  : J'(13,17) =           -92.189794  (cm-1)
 J(13,18) =           440.006333  : J'(13,18) =          -220.003167  (cm-1)
 J(13,19) =          3881.704541  : J'(13,19) =         -1940.852271  (cm-1)
 J(13,20) =            30.865224  : J'(13,20) =           -15.432612  (cm-1)
 J(13,21) =          -223.059165  : J'(13,21) =           111.529583  (cm-1)
 J(13,22) =           -35.725795  : J'(13,22) =            17.862898  (cm-1)
 J(13,23) =            16.950998  : J'(13,23) =            -8.475499  (cm-1)
 J(14,15) =         14846.236377  : J'(14,15) =         -7423.118188  (cm-1)
 J(14,16) =             1.166062  : J'(14,16) =            -0.583031  (cm-1)
 J(14,17) =            16.585616  : J'(14,17) =            -8.292808  (cm-1)
 J(14,18) =            86.203727  : J'(14,18) =           -43.101864  (cm-1)
 J(14,19) =           411.768778  : J'(14,19) =          -205.884389  (cm-1)
 J(14,20) =           -95.058348  : J'(14,20) =            47.529174  (cm-1)
 J(14,21) =          -279.065975  : J'(14,21) =           139.532987  (cm-1)
 J(14,22) =           -88.277217  : J'(14,22) =            44.138608  (cm-1)
 J(14,23) =           -94.105450  : J'(14,23) =            47.052725  (cm-1)
 J(15,16) =            10.556890  : J'(15,16) =            -5.278445  (cm-1)
 J(15,17) =            66.934995  : J'(15,17) =           -33.467497  (cm-1)
 J(15,18) =            74.978881  : J'(15,18) =           -37.489441  (cm-1)
 J(15,19) =           342.216530  : J'(15,19) =          -171.108265  (cm-1)
 J(15,20) =           250.127622  : J'(15,20) =          -125.063811  (cm-1)
 J(15,21) =          2725.763324  : J'(15,21) =         -1362.881662  (cm-1)
 J(15,22) =           440.278543  : J'(15,22) =          -220.139272  (cm-1)
 J(15,23) =           309.366656  : J'(15,23) =          -154.683328  (cm-1)
 J(16,17) =         12751.395669  : J'(16,17) =         -6375.697835  (cm-1)
 J(16,18) =         14259.690097  : J'(16,18) =         -7129.845049  (cm-1)
 J(16,19) =         13315.997121  : J'(16,19) =         -6657.998561  (cm-1)
 J(16,20) =            92.536448  : J'(16,20) =           -46.268224  (cm-1)
 J(16,21) =            11.261922  : J'(16,21) =            -5.630961  (cm-1)
 J(16,22) =           -11.287046  : J'(16,22) =             5.643523  (cm-1)
 J(16,23) =            28.019576  : J'(16,23) =           -14.009788  (cm-1)
 J(17,18) =         14722.332995  : J'(17,18) =         -7361.166497  (cm-1)
 J(17,19) =         13345.195728  : J'(17,19) =         -6672.597864  (cm-1)
 J(17,20) =            40.019409  : J'(17,20) =           -20.009704  (cm-1)
 J(17,21) =            17.343622  : J'(17,21) =            -8.671811  (cm-1)
 J(17,22) =            -6.799794  : J'(17,22) =             3.399897  (cm-1)
 J(17,23) =            85.353529  : J'(17,23) =           -42.676765  (cm-1)
 J(18,19) =         14661.983783  : J'(18,19) =         -7330.991891  (cm-1)
 J(18,20) =             9.407923  : J'(18,20) =            -4.703961  (cm-1)
 J(18,21) =           -11.202452  : J'(18,21) =             5.601226  (cm-1)
 J(18,22) =           -18.065075  : J'(18,22) =             9.032537  (cm-1)
 J(18,23) =             0.461129  : J'(18,23) =            -0.230565  (cm-1)
 J(19,20) =            17.953036  : J'(19,20) =            -8.976518  (cm-1)
 J(19,21) =            60.129157  : J'(19,21) =           -30.064578  (cm-1)
 J(19,22) =            -0.342164  : J'(19,22) =             0.171082  (cm-1)
 J(19,23) =             7.957144  : J'(19,23) =            -3.978572  (cm-1)
 J(20,21) =         12690.649293  : J'(20,21) =         -6345.324647  (cm-1)
 J(20,22) =         14898.091343  : J'(20,22) =         -7449.045672  (cm-1)
 J(20,23) =         12020.920323  : J'(20,23) =         -6010.460162  (cm-1)
 J(21,22) =         14202.678777  : J'(21,22) =         -7101.339388  (cm-1)
 J(21,23) =         13789.386591  : J'(21,23) =         -6894.693296  (cm-1)
 J(22,23) =         14729.691662  : J'(22,23) =         -7364.845831  (cm-1)
 Analysis of SCF Wavefunction

 --------------------------------------------------------------

                    Orbital Energies (a.u.)
 --------------------------------------------------------------

 Alpha MOs
 -- Occupied --
 -0.914  -0.914  -0.552  -0.545  -0.528  -0.543  -0.557  -0.547
 -0.542  -0.591  -0.567  -0.551  -0.550  -0.590  -0.540  -0.551
 -0.528  -0.548  -0.551  -0.528  -0.539  -0.558  -0.560  -0.555
 -0.530  -0.570
 -- Virtual --
  1.003   0.901   1.029   0.981   1.128   1.016   0.972   0.962
  1.079   1.154   1.081   0.990   1.148   0.928   1.062   1.050
  0.991   0.997   1.046   1.035   1.022   1.088   1.040   1.013
  1.106   1.209

 Beta MOs
 -- Occupied --
 -0.914  -0.914
 -- Virtual --
  0.146   0.153   0.157   0.154   0.145   0.148   0.154   0.137
  0.148   0.148   0.154   0.137   0.151   0.152   0.157   0.152
  0.148   0.157   0.155   0.152   0.151   0.148   0.155   0.144
  1.181   1.105   1.198   1.154   1.294   1.193   1.151   1.153
  1.230   1.264   1.229   1.174   1.281   1.118   1.240   1.231
  1.168   1.172   1.217   1.199   1.175   1.259   1.217   1.193
  1.289   1.376
 --------------------------------------------------------------

          Ground-State Mulliken Net Atomic Charges

     Atom                 Charge (a.u.)
  ----------------------------------------
      1 H                    -0.000238
      2 H                     0.000618
      3 H                    -0.000361
      4 H                    -0.000783
      5 H                    -0.000579
      6 H                     0.000639
      7 H                    -0.000470
      8 H                    -0.000411
      9 H                     0.000246
     10 H                     0.000620
     11 H                    -0.001290
     12 H                     0.000083
     13 H                     0.000387
     14 H                     0.001180
     15 H                    -0.001138
     16 H                     0.000713
     17 H                    -0.000078
     18 H                     0.000362
     19 H                    -0.001072
     20 H                     0.001258
     21 H                     0.000678
     22 H                     0.000464
     23 H                    -0.001147
     24 H                     0.000318
     25 He                    0.000000
     26 He                   -0.000000
  ----------------------------------------
  Sum of atomic charges =    -0.000000

 -----------------------------------------------------------------
                    Cartesian Multipole Moments
 -----------------------------------------------------------------
    Charge (ESU x 10^10)
                -0.0000
    Dipole Moment (Debye)
         X      -0.0130      Y      -0.0067      Z      -0.0027
       Tot       0.0149
    Quadrupole Moments (Debye-Ang)
        XX     -41.0285     XY      -0.4688     YY     -41.1774
        XZ      -0.1052     YZ       0.0830     ZZ     -41.3908
    Octopole Moments (Debye-Ang^2)
       XXX     154.2847    XXY     -45.2919    XYY      52.3025
       YYY    -143.5612    XXZ     -19.0263    XYZ       0.1679
       YYZ     -19.5111    XZZ      53.3001    YZZ     -46.5315
       ZZZ     -61.9295
    Hexadecapole Moments (Debye-Ang^3)
      XXXX   -2133.5136   XXXY      43.4303   XXYY    -669.7769
      XYYY      47.6473   YYYY   -1838.6170   XXXZ     -28.7209
      XXYZ    -205.1275   XYYZ      -1.4254   YYYZ    -627.8224
      XXZZ    -646.0997   XYZZ      24.3398   YYZZ    -595.8588
      XZZZ     -33.8343   YZZZ    -636.3624   ZZZZ   -1821.5455
 -----------------------------------------------------------------
 JobOver = TRUE
Archival summary:
1\1\sinatra\SP\ROProcedureUnspecified\6-31G*\e224(K)\nmayhall\WedMar2912:48:292017WedMar2912:48:292017\0\\#,ROProcedureUnspecified,6-31G*,\\0,25\H\H,1,1.46542\H,1,1.46571,2,60.1059\H,1,1.46588,2,60.1063,3,70.5779,0\H,1,2.01652,2,130.619,3,-135.572,0\H,5,1.4658,1,135.832,2,-163.289,0\H,5,1.46584,1,153.178,2,-46.5163,0\H,5,1.46588,1,143.154,2,96.3597,0\H,1,2.18716,2,154.68,3,105.089,0\H,9,1.46651,1,99.5424,2,67.077,0\H,9,1.46658,1,135.202,2,10.4233,0\H,9,1.46669,1,75.1825,2,11.7126,0\H,10,2.15219,9,119.295,1,16.0119,0\H,13,1.46678,10,114.521,9,-10.1986,0\H,14,1.46676,13,60.0216,10,-134.581,0\H,14,1.46684,13,60.0287,10,-64.0577,0\H,14,2.07759,13,136.073,10,60.081,0\H,17,1.4668,14,138.485,13,1.57655,0\H,17,1.46683,14,154.99,13,131.255,0\H,17,1.46691,14,139.009,13,-97.0871,0\H,20,2.18845,17,95.3927,14,66.9462,0\H,21,1.46653,20,163.342,17,-1.99129,0\H,21,1.46663,20,136.572,17,173.248,0\H,21,1.46665,20,125.198,17,-105.025,0\He,7,13.8634,5,173.142,1,-16.014,0\He,11,15.5034,9,150.818,1,40.0418,0\\HF=-16.5188085\\@

 Total job time:  4.39s(wall), 4.38s(cpu) 
 Wed Mar 29 12:48:29 2017

        *************************************************************
        *                                                           *
        *  Thank you very much for using Q-Chem.  Have a nice day.  *
        *                                                           *
        *************************************************************


*** MISSION COMPLETED -- STARFLEET OUT ***

